# vtk DataFile Version 3.0
Generated by GMDS VTK Writer

ASCII
DATASET UNSTRUCTURED_GRID
POINTS 8 float
0 0 0
10 0 0
10 0 5
0 0 5
0 5 0
10 5 0
10 5 5
0 5 5

CELLS 1 9
8 0 1 2 3 4 5 6 7 

CELL_TYPES 1
12 
POINT_DATA 8
SCALARS GMDS_ID int 1
LOOKUP_TABLE default
0 1 2 3 4 5 6 7 


CELL_DATA 1
SCALARS GMDS_ID int 1
LOOKUP_TABLE default
0 

