# vtk DataFile Version 3.0
Generated by GMDS VTK Writer

ASCII
DATASET UNSTRUCTURED_GRID
POINTS 24 float
0 0 0
2 0 0
0 1 0
2 1 0
0 0 1
2 0 1
0 1 1
2 1 1
0.5 -9.5173e-15 1
0.5 -9.5173e-15 0
0.599635 1 0
0.599635 1 1
1.5 -1.22465e-16 1
1.5 -1.22465e-16 0
1.40036 1 0
1.40036 1 1
2 0.5 1
2 0.5 0
1.31252 0.390295 0
1.31252 0.390295 1
0.687479 0.390295 1
0.687479 0.390295 0
0 0.5 0
0 0.5 1
CELLS 5 45
8 7 15 14 3 16 19 18 17 
8 16 19 18 17 5 12 13 1 
8 15 11 10 14 19 20 21 18 
8 20 23 22 21 8 4 0 9 
8 11 6 2 10 20 23 22 21 
CELL_TYPES 5
12 
12 
12 
12 
12 
POINT_DATA 24
SCALARS GMDS_ID int 1
LOOKUP_TABLE default
0
1
2
3
4
5
6
7
8
9
10
11
12
13
14
15
16
17
18
19
20
21
22
23
SCALARS Hors_Groupe_0DND int 1
LOOKUP_TABLE default
1
1
1
1
1
1
1
1
1
1
0
0
1
1
0
0
0
0
0
0
0
0
0
0
SCALARS Hors_Groupe_1DND int 1
LOOKUP_TABLE default
1
1
1
1
1
1
1
1
1
1
1
1
1
1
1
1
1
1
1
1
1
1
1
1
CELL_DATA 5
SCALARS GMDS_ID int 1
LOOKUP_TABLE default
0
1
2
3
4
