# vtk DataFile Version 3.0
Generated by GMDS VTK Writer

ASCII
DATASET UNSTRUCTURED_GRID
POINTS 24 float
0 0 0
2 0 0
0 1 0
2 1 0
0 0 1
2 0 1
0 1 1
2 1 1
0.5 -9.5173e-15 1
0.5 -9.5173e-15 0
0.599635 1 0
0.599635 1 1
1.5 -1.22465e-16 1
1.5 -1.22465e-16 0
1.40036 1 0
1.40036 1 1
2 0.5 1
2 0.5 0
1.31252 0.390295 0
1.31252 0.390295 1
0.687479 0.390295 1
0.687479 0.390295 0
0 0.5 0
0 0.5 1
CELLS 26 130
4 4 8 9 0 
4 2 10 11 6 
4 12 5 1 13 
4 10 14 15 11 
4 14 3 7 15 
4 5 16 17 1 
4 16 7 3 17 
4 1 17 18 13 
4 17 3 14 18 
4 15 19 16 7 
4 19 12 5 16 
4 13 18 19 12 
4 18 14 15 19 
4 19 18 17 16 
4 8 20 21 9 
4 20 11 10 21 
4 21 10 14 18 
4 15 19 20 11 
4 20 21 18 19 
4 0 22 23 4 
4 22 2 6 23 
4 9 21 22 0 
4 21 10 2 22 
4 6 23 20 11 
4 23 4 8 20 
4 23 22 21 20 
CELL_TYPES 26
9 
9 
9 
9 
9 
9 
9 
9 
9 
9 
9 
9 
9 
9 
9 
9 
9 
9 
9 
9 
9 
9 
9 
9 
9 
9 
POINT_DATA 24
SCALARS GMDS_ID int 1
LOOKUP_TABLE default
0
1
2
3
4
5
6
7
8
9
10
11
12
13
14
15
16
17
18
19
20
21
22
23
SCALARS Hors_Groupe_0DND int 1
LOOKUP_TABLE default
1
1
1
1
1
1
1
1
1
1
0
0
1
1
0
0
0
0
0
0
0
0
0
0
SCALARS Hors_Groupe_1DND int 1
LOOKUP_TABLE default
1
1
1
1
1
1
1
1
1
1
1
1
1
1
1
1
1
1
1
1
1
1
1
1
CELL_DATA 26
SCALARS GMDS_ID int 1
LOOKUP_TABLE default
0
1
2
3
4
5
6
7
8
9
10
11
12
13
14
15
16
17
18
19
20
21
22
23
24
25
SCALARS Hors_Groupe_2D int 1
LOOKUP_TABLE default
1
1
1
1
1
1
1
1
1
1
1
1
0
0
1
0
1
1
1
1
1
1
1
1
1
0
