# vtk DataFile Version 3.0
Generated by GMDS VTK Writer

ASCII
DATASET UNSTRUCTURED_GRID
POINTS 27 float
0 0 0
0 0 2
0 0 4
0 2 0
0 2 2
0 2 4
0 4 0
0 4 2
0 4 4
2 0 0
2 0 2
2 0 4
2 2 0
2 2 2
2 2 4
2 4 0
2 4 2
2 4 4
4 0 0
4 0 2
4 0 4
4 2 0
4 2 2
4 2 4
4 4 0
4 4 2
4 4 4

CELLS 8 72
8 0 9 12 3 1 10 13 4 
8 1 10 13 4 2 11 14 5 
8 3 12 15 6 4 13 16 7 
8 4 13 16 7 5 14 17 8 
8 9 18 21 12 10 19 22 13 
8 10 19 22 13 11 20 23 14 
8 12 21 24 15 13 22 25 16 
8 13 22 25 16 14 23 26 17 

CELL_TYPES 8
12 
12 
12 
12 
12 
12 
12 
12 
POINT_DATA 27
SCALARS GMDS_ID int 1
LOOKUP_TABLE default
0 1 2 3 4 5 6 7 8 9 10 11 12 13 14 15 16 17 18 19 20 21 22 23 24 25 26 


CELL_DATA 8
SCALARS GMDS_ID int 1
LOOKUP_TABLE default
0 1 2 3 4 5 6 7 

