# vtk DataFile Version 3.0
Generated by GMDS VTK Writer

ASCII
DATASET UNSTRUCTURED_GRID
POINTS 552 float
0 0 0
0 5 0
1 5 0
1 0 0
5 2 0
5 3 0
4 3 0
4 2 0
1.5 2.5 0
1.5 1.5 0
1.5 3.5 0
1 2.5 0
2 2.5 0
0 0.2 0
0 0.4 0
0 0.6 0
0 0.8 0
0 1 0
0 1.2 0
0 1.4 0
0 1.6 0
0 1.8 0
0 2 0
0 2.2 0
0 2.4 0
0 2.6 0
0 2.8 0
0 3 0
0 3.2 0
0 3.4 0
0 3.6 0
0 3.8 0
0 4 0
0 4.2 0
0 4.4 0
0 4.6 0
0 4.8 0
0.195414 4.99995 0
0.390358 4.98824 0
0.582611 4.95376 0
0.770847 4.90148 0
0.95494 4.83602 0
1.13518 4.76057 0
1.31195 4.6773 0
1.48571 4.5879 0
1.65727 4.49436 0
1.82732 4.39808 0
1.99631 4.29996 0
2.16458 4.2006 0
2.3324 4.10048 0
2.5 4 0
2.6676 3.89952 0
2.83542 3.7994 0
3.00369 3.70004 0
3.17268 3.60192 0
3.34273 3.50564 0
3.51429 3.4121 0
3.68805 3.3227 0
3.86482 3.23943 0
4.04506 3.16398 0
4.22915 3.09852 0
4.41739 3.04624 0
4.60964 3.01176 0
4.80459 3.00005 0
0.195414 5.38788e-05 0
0.390358 0.0117647 0
0.582611 0.0462416 0
0.770847 0.0985229 0
0.95494 0.163976 0
1.13518 0.239425 0
1.31195 0.322698 0
1.48571 0.412096 0
1.65727 0.505638 0
1.82732 0.601915 0
1.99631 0.700042 0
2.16458 0.799402 0
2.3324 0.89952 0
2.5 1 0
2.6676 1.10048 0
2.83542 1.2006 0
3.00369 1.29996 0
3.17268 1.39808 0
3.34273 1.49436 0
3.51429 1.5879 0
3.68805 1.6773 0
3.86482 1.76057 0
4.04506 1.83602 0
4.22915 1.90148 0
4.41739 1.95376 0
4.60964 1.98824 0
4.80459 1.99995 0
5 2.8 0
5 2.6 0
5 2.4 0
5 2.2 0
1.99248 2.67279 0
1.96945 2.84419 0
1.92937 3.01241 0
1.86916 3.17445 0
1.78313 3.32423 0
1.66169 3.44627 0
1.33831 3.44627 0
1.21687 3.32423 0
1.13084 3.17445 0
1.07063 3.01241 0
1.03055 2.84419 0
1.00752 2.67279 0
1.00752 2.32721 0
1.03055 2.15581 0
1.07063 1.98759 0
1.13084 1.82555 0
1.21687 1.67577 0
1.33831 1.55373 0
1.66169 1.55373 0
1.78313 1.67577 0
1.86916 1.82555 0
1.92937 1.98759 0
1.96945 2.15581 0
1.99248 2.32721 0
3.03956 2.50844 0
0.806066 4.03878 0
0.806066 0.961221 0
2.61732 3.09983 0
2.6427 1.94809 0
3.756 2.5 0
0.598953 1.56774 0
0.598953 3.43226 0
1.35287 4.03435 0
1.35287 0.965646 0
2.27848 1.48756 0
2.2832 3.51187 0
2.51444 2.58888 0
4.31553 2.50156 0
0.515099 2.1738 0
0.521994 2.84664 0
3.15697 3.01219 0
3.15478 1.98369 0
0.493907 0.54411 0
0.493907 4.45589 0
1.814 1.12846 0
1.814 3.87154 0
0.993577 3.65646 0
0.993577 1.34354 0
3.57274 2.09731 0
3.57914 2.89955 0
2.35891 2.18769 0
0.402425 1.14985 0
0.402425 3.85015 0
1.07656 4.33941 0
1.07656 0.660593 0
2.68188 2.29808 0
2.269 3.10387 0
2.25247 1.87388 0
2.65714 3.46775 0
2.66553 1.5333 0
0.716668 1.88524 0
0.716668 3.11476 0
4.04044 2.77027 0
4.04044 2.22973 0
0.65309 2.50149 0
3.41519 2.57729 0
2.81331 2.73289 0
0.345845 1.79849 0
0.372438 3.19511 0
1.93644 3.61294 0
1.93644 1.38706 0
4.64672 2.66976 0
2.94185 1.67498 0
2.96422 3.33959 0
2.275 2.82068 0
0.325282 2.44114 0
0.88635 3.38102 0
0.88635 1.61898 0
4.64431 2.3086 0
0.331326 0.832274 0
0.331326 4.16773 0
2.21781 1.18888 0
2.21781 3.81112 0
0.823405 0.445656 0
0.823405 4.55434 0
1.2728 3.74027 0
1.2728 1.25973 0
3.27261 2.28752 0
1.63492 0.843545 0
1.63492 4.15646 0
0.701845 3.7462 0
0.701845 1.2538 0
0.3065 1.44062 0
0.3065 3.55938 0
0.291025 0.302684 0
0.291025 4.69732 0
1.07918 1.05662 0
1.07918 3.94338 0
2.25864 2.47146 0
1.3631 4.3209 0
1.3631 0.679098 0
1.53359 1.22198 0
1.53359 3.77802 0
3.41703 1.86059 0
3.43366 3.14547 0
2.05486 3.34838 0
2.06485 1.64293 0
2.88391 2.03619 0
0.767228 2.21063 0
0.764474 2.79679 0
4.32418 2.79117 0
4.3042 2.22453 0
2.45647 1.27553 0
2.45647 3.72447 0
3.14779 2.74027 0
2.55485 2.84245 0
0.262728 2.71129 0
0.266711 2.07809 0
3.84547 2.03431 0
3.84547 2.96569 0
2.89351 3.03333 0
2.76781 2.52772 0
0.719595 0.711535 0
0.719595 4.28847 0
2.47444 1.71094 0
4.02266 2.5 0
2.4483 3.36161 0
3.52299 2.35284 0
0.618191 0.349386 0
0.618191 4.65061 0
2.02046 3.98587 0
2.02046 1.01413 0
3.01192 2.23578 0
0.25441 0.589545 0
0.25441 4.41046 0
0.213876 2.97039 0
0.540791 0.952911 0
0.540791 4.04709 0
2.17558 2.05835 0
3.23704 1.67895 0
3.21018 3.29531 0
1.75476 1.37114 0
1.75476 3.62886 0
2.51604 2.36196 0
3.74865 2.7045 0
3.76381 2.2554 0
2.14109 2.97397 0
1.14374 3.51033 0
1.14374 1.48967 0
3.32857 2.89772 0
2.57356 2.08529 0
0.46041 2.61384 0
4.77691 2.46292 0
2.87105 1.48247 0
2.87496 3.51761 0
0.871705 2.04998 0
0.871311 2.95108 0
0.22548 1.0343 0
0.22548 3.9657 0
2.18971 2.6608 0
0.923537 3.1792 0
0.923594 1.82095 0
2.75759 3.27347 0
2.75871 1.71697 0
3.35543 2.07584 0
1.15351 4.11788 0
1.15351 0.882122 0
0.514284 1.95375 0
0.538433 3.0665 0
1.04104 0.440987 0
1.04104 4.55901 0
0.81482 1.43061 0
0.81482 3.56939 0
2.43664 3.02362 0
0.222333 1.62435 0
0.210343 3.34805 0
1.85241 4.13555 0
1.85241 0.864448 0
2.40999 2.00507 0
3.69875 1.90829 0
3.67032 3.10167 0
0.834131 2.38668 0
2.06286 3.17856 0
0.55686 1.7492 0
0.562901 3.25244 0
0.893732 3.85239 0
0.893732 1.14761 0
2.21112 2.25503 0
0.515199 1.33138 0
0.515199 3.66862 0
1.5394 3.9723 0
1.5394 1.0277 0
2.05651 1.83911 0
0.828638 2.61597 0
4.78349 2.21602 0
2.64207 1.30328 0
2.64121 3.69683 0
0.956108 4.17075 0
0.956108 0.829252 0
3.04367 2.83724 0
0.209438 1.24873 0
0.209438 3.75127 0
0.204002 2.24813 0
1.22979 0.524267 0
1.22979 4.47573 0
1.96747 1.19729 0
1.96747 3.80271 0
4.52145 2.82221 0
3.58607 2.63178 0
0.414963 1.60818 0
0.414963 3.39182 0
4.79269 2.79297 0
0.520178 2.36327 0
4.05593 2.9588 0
4.05593 2.0412 0
0.532636 0.741703 0
0.532636 4.2583 0
3.2398 2.49374 0
2.24871 3.32912 0
2.47263 1.46189 0
2.46999 3.55278 0
0.17494 1.90679 0
2.98936 1.89332 0
4.54213 2.49326 0
2.89426 2.38124 0
2.12321 3.68456 0
2.12253 1.31536 0
4.47049 2.14734 0
1.81834 1.50939 0
1.81834 3.49061 0
2.24486 1.66545 0
1.53443 4.3521 0
1.53443 0.647899 0
2.9812 2.68561 0
0.67119 2.08062 0
0.679166 2.94311 0
0.637842 2.69029 0
4.18054 2.6439 0
4.16932 2.35816 0
0.472048 0.200684 0
0.472048 4.79932 0
0.738125 3.30043 0
0.737128 1.69987 0
2.63948 2.68728 0
0.184343 3.13613 0
0.884559 0.633943 0
0.884559 4.36606 0
1.39819 1.14802 0
1.39819 3.85198 0
2.71689 2.92192 0
2.36463 2.66411 0
1.41935 1.35243 0
1.41935 3.64757 0
2.121 2.79456 0
0.195582 2.57177 0
3.04554 3.143 0
2.36168 1.12087 0
2.36168 3.87913 0
0.795647 0.257376 0
0.795647 4.74262 0
1.04993 3.33317 0
1.04993 1.66684 0
1.4585 4.17177 0
1.4585 0.828231 0
0.681922 1.07074 0
0.681922 3.92926 0
3.12138 1.57265 0
3.1205 3.44224 0
3.47169 2.78114 0
1.11892 1.22017 0
1.11892 3.77983 0
3.90786 2.3616 0
3.91619 2.64308 0
1.24002 1.09378 0
1.24002 3.90622 0
2.18145 1.00437 0
2.18145 3.99563 0
0.178849 0.17933 0
0.178849 4.82067 0
0.172188 0.74915 0
0.172188 4.25085 0
0.674661 2.3385 0
2.79938 1.88315 0
0.373257 2.23795 0
4.42176 2.65364 0
0.163149 0.442616 0
0.163149 4.55738 0
0.97999 3.50067 0
0.97999 1.49933 0
3.16031 2.15639 0
2.73392 2.10897 0
4.42379 2.35249 0
0.447407 0.378138 0
0.447407 4.62186 0
1.26733 3.59955 0
1.26733 1.40045 0
2.59065 3.25903 0
0.674356 0.54633 0
0.674356 4.45367 0
0.143731 1.49214 0
0.143731 3.50786 0
3.39863 2.40789 0
1.59644 3.61843 0
1.59644 1.38157 0
2.30747 1.32282 0
2.31135 3.68326 0
3.44771 2.24093 0
4.83051 2.62576 0
0.382789 0.99045 0
0.382789 4.00955 0
3.38666 1.69607 0
3.38666 3.30393 0
2.11888 2.41801 0
4.26661 2.93352 0
4.25032 2.07046 0
2.60583 2.48035 0
2.29745 2.96956 0
2.87007 2.19576 0
3.53947 1.78129 0
3.5386 3.25717 0
2.43195 3.18903 0
0.355366 2.84243 0
1.72414 1.00572 0
1.72414 3.99428 0
1.93703 1.70056 0
1.94019 3.29741 0
2.37135 2.33568 0
3.25783 1.86459 0
3.28837 3.11276 0
2.4823 1.86892 0
2.10047 1.5096 0
2.10035 3.48794 0
1.75449 4.25866 0
1.75449 0.741339 0
0.156976 2.8315 0
0.683072 0.865414 0
0.683072 4.13459 0
0.848718 1.29111 0
0.848718 3.70889 0
3.11219 2.36347 0
0.137991 0.893661 0
0.137991 4.10634 0
2.42183 2.47883 0
2.88694 3.1785 0
0.646979 3.57414 0
0.646979 1.42586 0
0.380987 0.682986 0
0.380987 4.31701 0
3.0261 2.07695 0
0.363507 1.29692 0
0.363507 3.70308 0
0.948135 4.01784 0
0.948135 0.982164 0
1.2249 4.28526 0
1.2249 0.714736 0
2.00539 4.14683 0
2.00539 0.853168 0
0.411143 2.06576 0
2.38781 1.60786 0
2.61825 1.7558 0
3.45882 2.991 0
0.908251 2.22671 0
0.905987 2.77457 0
0.567431 3.83661 0
0.567431 1.16339 0
1.68549 1.19689 0
1.68549 3.80311 0
3.89084 2.1803 0
3.89084 2.8197 0
1.38627 4.47343 0
1.38627 0.526568 0
3.27852 2.70891 0
4.65252 2.13575 0
2.81062 3.65062 0
2.81062 1.34938 0
0.367903 3.01768 0
0.952123 0.311095 0
0.952123 4.6889 0
3.53203 1.95757 0
1.31141 0.817488 0
1.31141 4.18251 0
0.115164 2.1 0
2.42675 2.85944 0
2.06459 1.98084 0
4.66393 2.87121 0
3.02034 3.55244 0
3.02081 1.45747 0
1.95566 1.55925 0
1.95566 3.44075 0
3.13991 2.607 0
2.4976 2.72585 0
0.740342 3.44288 0
0.740342 1.55712 0
2.52624 3.84926 0
2.52631 1.15075 0
1.8329 1.25203 0
1.8329 3.74797 0
3.90922 1.90526 0
3.90774 3.09526 0
2.09709 2.16607 0
1.17949 0.381844 0
1.17949 4.61816 0
0.329979 0.451419 0
0.329979 4.54858 0
3.72714 2.1179 0
3.72467 2.88284 0
1.15927 1.34271 0
1.15927 3.65729 0
3.11704 1.77803 0
3.17512 2.86834 0
3.55957 2.47469 0
0.123057 2.70291 0
4.85736 2.33539 0
1.87832 1.00263 0
1.87832 3.99737 0
0.813605 0.80632 0
0.813605 4.19368 0
3.68196 2.37313 0
3.61939 2.23959 0
4.40693 2.90678 0
0.146309 2.40575 0
0.472364 3.52956 0
0.472364 1.47044 0
0.322222 2.58275 0
0.31163 0.1383 0
0.31163 4.8617 0
4.17351 2.81526 0
4.17344 2.19541 0
4.16802 2.50024 0
2.89923 2.56718 0
2.77383 3.10309 0
3.62128 2.77511 0
2.49009 2.22541 0
2.79189 3.40758 0
2.7908 1.59282 0
2.56284 2.96928 0
2.29998 2.07228 0
0.648242 0.185055 0
0.648242 4.81494 0
0.11288 0.304804 0
0.11288 4.6952 0
0.633239 2.22679 0
2.35846 1.74677 0
0.342584 1.96058 0
2.52902 1.6018 0
2.11875 2.54112 0
4.885 2.11687 0
0.650869 2.81921 0
2.14354 1.74463 0
0.113549 3.87527 0
0.113549 1.12473 0
2.90155 2.87677 0
3.0296 2.97718 0
4.89313 2.89108 0
2.09547 3.86151 0
2.09537 1.13848 0
0.136562 1.75302 0

CELLS 980 3920
3 424 273 245 
3 123 424 245 
3 92 93 402 
3 402 93 247 
3 366 333 158 
3 367 157 332 
3 220 333 366 
3 220 367 332 
3 151 277 313 
3 161 524 216 
3 200 313 277 
3 88 409 322 
3 244 423 455 
3 150 410 216 
3 173 318 247 
3 166 247 318 
3 135 423 244 
3 159 307 246 
3 178 223 392 
3 179 393 224 
[...]
POINT_DATA 552
SCALARS GMDS_ID int 1
LOOKUP_TABLE default
0 1 2 3 4 5 6 7 8 9 10 11 12 13 14 15 16 17 18 19 20 21 22 23 24 25 26 27 28 29 30 31 32 33 34 35 36 37 38 39 40 41 42 43 44 45 46 47 48 49 50 51 52 53 54 55 56 57 58 59 60 61 62 63 64 65 66 67 68 69 70 71 72 73 74 75 76 77 78 79 80 81 82 83 84 85 86 87 88 89 90 91 92 93 94 95 96 97 98 99 100 101 102 103 104 105 106 107 108 109 110 111 112 113 114 115 116 117 118 119 120 121 122 123 124 125 126 127 128 129 130 131 132 133 134 135 136 137 138 139 140 141 142 143 144 145 146 147 148 149 150 151 152 153 154 155 156 157 158 159 160 161 162 163 164 165 166 167 168 169 170 171 172 173 174 175 176 177 178 179 180 181 182 183 184 185 186 187 188 189 190 191 192 193 194 195 196 197 198 199 200 201 202 203 204 205 206 207 208 209 210 211 212 213 214 215 216 217 218 219 220 221 222 223 224 225 226 227 228 229 230 231 232 233 234 235 236 237 238 239 240 241 242 243 244 245 246 247 248 249 250 251 252 253 254 255 256 257 258 259 260 261 262 263 264 265 266 267 268 269 270 271 272 273 274 275 276 277 278 279 280 281 282 283 284 285 286 287 288 289 290 291 292 293 294 295 296 297 298 299 300 301 302 303 304 305 306 307 308 309 310 311 312 313 314 315 316 317 318 319 320 321 322 323 324 325 326 327 328 329 330 331 332 333 334 335 336 337 338 339 340 341 342 343 344 345 346 347 348 349 350 351 352 353 354 355 356 357 358 359 360 361 362 363 364 365 366 367 368 369 370 371 372 373 374 375 376 377 378 379 380 381 382 383 384 385 386 387 388 389 390 391 392 393 394 395 396 397 398 399 400 401 402 403 404 405 406 407 408 409 410 411 412 413 414 415 416 417 418 419 420 421 422 423 424 425 426 427 428 429 430 431 432 433 434 435 436 437 438 439 440 441 442 443 444 445 446 447 448 449 450 451 452 453 454 455 456 457 458 459 460 461 462 463 464 465 466 467 468 469 470 471 472 473 474 475 476 477 478 479 480 481 482 483 484 485 486 487 488 489 490 491 492 493 494 495 496 497 498 499 500 501 502 503 504 505 506 507 508 509 510 511 512 513 514 515 516 517 518 519 520 521 522 523 524 525 526 527 528 529 530 531 532 533 534 535 536 537 538 539 540 541 542 543 544 545 546 547 548 549 550 551 
SCALARS angle float 1
LOOKUP_TABLE default
0 0 0 0 0 0 0 0 0 -0 -0 6.28319 6.28319 0 0 0 0 0 0 0 0 0 0 0 0 0 0 0 0 0 0 0 0 0 0 0 0 6.16263 5.8083 5.38646 5.05814 4.80709 4.60981 4.45233 4.3345 4.25451 4.20067 4.16423 4.14059 4.12724 4.12292 4.12724 4.14059 4.16423 4.20067 4.25451 4.3345 4.45233 4.60981 4.80709 5.05814 5.38646 5.8083 6.16263 0.120553 0.47489 0.896721 1.22505 1.47609 1.67338 1.83085 1.94869 2.02868 2.08252 2.11896 2.1426 2.15594 2.16026 2.15594 2.1426 2.11896 2.08252 2.02868 1.94869 1.83085 1.67338 1.47609 1.22505 0.896721 0.47489 0.120553 0 0 0 0 0.354117 0.734916 1.17933 1.75429 2.60861 4.0658 2.21738 3.67458 4.5289 5.10386 5.54827 5.92907 0.354117 0.734916 1.17933 1.75429 2.60861 4.0658 2.21738 3.67458 4.5289 5.10386 5.54827 5.92907 6.02225 5.30655 0.980676 4.54981 1.57845 6.06657 0.478164 5.81815 4.54443 1.73846 2.49239 3.79385 0.000307868 6.13922 0.187487 6.08077 4.46955 1.85398 0.678874 5.60508 2.07259 4.20496 5.03698 1.25946 1.60658 4.7167 5.80195 0.304081 5.98077 4.73579 1.54828 0.152885 1.17877 5.03418 4.12321 2.15606 0.581424 5.71576 5.29546 0.913288 6.28255 5.08465 5.44975 0.177564 6.10627 3.76488 2.5093 6.05737 2.03068 4.25901 0.406679 0.0208043 4.99296 1.30852 0.139703 0.327255 5.95659 2.22471 4.05337 1.23507 5.04884 4.78201 1.50433 1.59403 1.97408 4.308 5.62225 0.668509 0.168587 6.11586 0.436543 5.84679 1.39222 4.89464 6.24971 4.44233 1.84085 1.44562 4.83129 1.85599 4.45255 2.68471 3.63023 1.72742 0.36961 5.91262 5.52174 0.598973 2.21813 4.0608 4.71533 6.13628 6.23083 0.084486 1.46901 4.83135 4.48959 6.1504 0.971401 5.31366 2.3099 6.10729 3.94453 1.27105 0.951413 5.33221 4.14087 2.13949 1.52527 0.285901 5.99751 6.21665 0.545406 5.74002 5.42777 1.9804 4.31881 2.17395 4.10018 6.14655 5.11746 1.20682 0.726532 3.62999 2.66065 4.5864 0.10702 6.22129 6.27055 2.10372 4.18112 0.599364 5.68733 0.142782 6.14068 0.279243 4.97712 1.31714 4.24815 2.05143 1.74889 4.70904 1.57546 0.278572 5.98873 1.54306 4.74055 0.899854 5.39827 6.26623 0.101892 6.18507 4.21278 2.06891 5.6742 1.67426 4.59904 0.234641 2.01593 0.389058 5.90462 5.24446 1.04594 5.79039 0.392369 5.89564 4.44084 1.84001 4.70348 6.05304 0.142161 2.17202 4.10815 4.97265 1.31287 4.65823 0.140025 6.14361 0.039254 1.74137 4.54203 2.2044 4.07177 5.73743 5.10121 0.247835 6.04178 6.08519 0.089758 5.06544 1.22575 0.643727 5.64087 6.21892 3.27904 2.26507 4.01535 0.0831407 1.91265 6.20611 0.583717 3.92268 2.35195 0.421133 2.7792 3.50207 3.17845 4.32396 1.95902 5.06501 0.362653 5.90341 6.10303 5.68457 0.363408 0.711167 5.57219 5.55095 0.749533 6.1147 6.22295 1.2784 5.00615 1.58391 4.69751 5.08738 0.182166 0.366053 5.91517 0.518246 6.27158 4.37325 2.19228 4.08783 1.23037 5.05309 4.2737 2.01384 4.41006 1.8726 0.70907 5.57872 2.03527 4.24311 4.75744 1.43004 4.85993 0.633866 5.45513 1.57028 4.71436 2.16122 4.12013 0.281663 6.00156 0.180912 6.10244 0.179246 1.90217 0.0924291 5.87288 0.223945 6.05932 4.78721 1.51197 1.72722 1.09934 0.17177 0.666251 5.61732 2.33855 3.94281 4.18094 0.970671 5.31358 0.0573062 6.22567 1.24051 5.68237 0.594952 2.28757 3.99483 1.55822 6.21813 0.319377 5.96487 1.93453 4.36515 6.1913 5.2291 1.05353 6.22452 0.529065 1.3067 1.86166 4.40416 4.07186 6.16976 1.99859 4.28154 4.03741 2.26848 6.02046 1.89927 4.43022 1.5414 2.85877 3.42962 4.23791 2.04469 6.23815 0.82286 5.46306 0.929099 5.36482 1.37851 0.118682 6.16463 6.22599 4.34257 5.73085 0.562607 0.441627 5.84222 1.76665 0.244735 6.04022 5.06861 1.21854 4.57739 1.70622 4.16271 2.11955 0.161772 2.46111 2.08151 4.57199 0.485202 5.79871 5.78862 0.498526 1.88575 4.39012 1.21836 5.05484 4.4033 1.8799 4.73912 0.340315 4.14322 2.13882 6.13404 1.42327 4.86017 1.74139 1.76054 4.52274 0.025609 0.217603 5.15981 5.87706 4.20819 2.07439 3.22195 3.07947 4.97273 0.0603613 5.53127 0.769247 4.10251 2.17889 2.16344 4.11121 1.53873 4.75339 5.58889 1.71491 4.56839 0.455966 5.82751 1.46552 4.83633 1.8937 4.40459 1.96186 4.58104 0.156664 6.25806 0.03375 2.08757 4.19253 1.08374 5.202 0.927116 1.40173 5.46021 0.00967369 5.9692 0.319594 6.25714 0.47611 5.80713 5.33673 0.851604 6.1208 5.82514 4.44391 4.87708 6.02891 4.19081 2.09571 5.62393 5.56115 1.03118 5.25212 0.154869 6.12834 0.239311 3.00512 0.150425 2.23815 0.0590686 0.0897295 6.00093 4.1198 6.23253 0.0507166 4.75248 4.50612 6.18759 4.08391 2.19442 0.0564542 
VECTORS cross_X float
1 0 0 1 0 0 1 0 0 1 0 0 1 0 0 1 0 0 1 0 0 1 0 0 1 0 0 1 0 0 1 0 0 7.91091e-14 1 0 7.95532e-14 1 0 1 0 0 1 0 0 1 0 0 1 0 0 1 0 0 1 0 0 1 0 0 1 0 0 1 0 0 1 0 0 1 0 0 1 0 0 1 0 0 1 0 0 1 0 0 1 0 0 1 0 0 1 0 0 1 0 0 1 0 0 1 0 0 1 0 0 1 0 0 1 0 0 0.0301336 0.999546 0 0.118444 0.992961 0 0.222307 0.974977 0 0.301496 0.953467 0 0.360704 0.93268 0 0.406248 0.913763 0 0.441898 0.897065 0 0.468128 0.883661 0 0.485705 0.874123 0 0.497427 0.867506 0 0.505308 0.862939 0 0.510399 0.859938 0 0.513266 0.85823 0 0.514192 0.857675 0 0.513266 0.85823 0 0.510399 0.859938 0 0.505308 0.862939 0 0.497427 0.867506 0 0.485705 0.874123 0 0.468128 0.883661 0 0.441898 0.897065 0 0.406248 0.913763 0 0.360704 0.93268 0 0.301496 0.953467 0 0.222307 0.974977 0 0.118444 0.992961 0 0.0301336 0.999546 0 0.999546 0.0301336 0 0.992961 0.118444 0 0.974977 0.222307 0 0.953467 0.301496 0 0.93268 0.360704 0 0.913763 0.406248 0 0.897065 0.441898 0 0.883661 0.468128 0 0.874123 0.485705 0 0.867506 0.497427 0 0.862939 0.505308 0 0.859938 0.510399 0 0.85823 0.513266 0 0.857675 0.514192 0 0.85823 0.513266 0 0.859938 0.510399 0 0.862939 0.505308 0 0.867506 0.497427 0 0.874123 0.485705 0 0.883661 0.468128 0 0.897065 0.441898 0 0.913763 0.406248 0 0.93268 0.360704 0 0.953467 0.301496 0 0.974977 0.222307 0 0.992961 0.118444 0 0.999546 0.0301336 0 1 0 0 1 0 0 1 0 0 1 0 0 0.996084 0.0884136 0 0.983169 0.182697 0 0.956851 0.290579 0 0.905359 0.424647 0 0.79478 0.606898 0 0.526387 0.850245 0 0.850245 0.526387 0 0.606898 0.79478 0 0.424647 0.905359 0 0.290579 0.956851 0 0.182697 0.983169 0 0.0884136 0.996084 0 0.996084 0.0884136 0 0.983169 0.182697 0 0.956851 0.290579 0 0.905359 0.424647 0 0.79478 0.606898 0 0.526387 0.850245 0 0.850245 0.526387 0 0.606898 0.79478 0 0.424647 0.905359 0 0.290579 0.956851 0 0.182697 0.983169 0 0.0884136 0.996084 0 0.0651875 0.997873 0 0.24174 0.970341 0 0.970096 0.24272 0 0.419909 0.907566 0 0.923146 0.38445 0 0.0541271 0.998534 0 0.992863 0.119256 0 0.115998 0.993249 0 0.421128 0.907001 0 0.907032 0.421061 0 0.812075 0.583553 0 0.582932 0.812521 0 1 7.69669e-05 0 0.035984 0.999352 0 0.998902 0.0468546 0 0.0505815 0.99872 0 0.438032 0.898959 0 0.894495 0.447077 0 0.985632 0.168905 0 0.168716 0.985665 0 0.868739 0.495271 0 0.496494 0.86804 0 0.306535 0.951859 0 0.950838 0.309688 0 0.920419 0.390933 0 0.381688 0.924291 0 0.12002 0.992772 0 0.997112 0.075947 0 0.0755323 0.997143 0 0.377272 0.926102 0 0.926019 0.377477 0 0.99927 0.038212 0 0.956892 0.290445 0 0.307203 0.951644 0 0.514131 0.857712 0 0.858215 0.51329 0 0.989454 0.144845 0 0.141381 0.989955 0 0.244429 0.969667 0 0.974048 0.226343 0 0.000159076 1 0 0.295169 0.955445 0 0.206855 0.978372 0 0.999015 0.0443763 0 0.0442142 0.999022 0 0.588802 0.808277 0 0.809601 0.58698 0 0.056424 0.998407 0 0.873879 0.486143 0 0.484721 0.874669 0 0.994836 0.101495 0 0.999986 0.00520105 0 0.316993 0.948428 0 0.946969 0.321325 0 0.99939 0.0349187 0 0.996655 0.0817226 0 0.0815571 0.996669 0 0.849279 0.527944 0 0.529028 0.848604 0 0.952709 0.303885 0 0.303713 0.952764 0 0.366547 0.9304 0 0.930111 0.367279 0 0.921641 0.388044 0 0.88067 0.473729 0 0.473971 0.88054 0 0.164482 0.98638 0 0.986067 0.16635 0 0.999112 0.0421342 0 0.0418201 0.999125 0 0.994051 0.108919 0 0.108882 0.994055 0 0.940038 0.34107 0 0.340207 0.940351 0 0.00836783 0.999965 0 0.444139 0.895958 0 0.895958 0.444139 0 0.935401 0.353589 0 0.355055 0.934845 0 0.894271 0.447526 0 0.441848 0.89709 0 0.78309 0.621908 0 0.615672 0.788003 0 0.908191 0.418556 0 0.995734 0.0922711 0 0.092508 0.995712 0 0.189213 0.981936 0 0.988809 0.149184 0 0.850146 0.526547 0 0.52745 0.849586 0 0.382005 0.92416 0 0.0367182 0.999326 0 0.0130884 0.999914 0 0.999777 0.0211199 0 0.933318 0.359052 0 0.355042 0.934851 0 0.433522 0.901143 0 0.0331897 0.999449 0 0.970657 0.24047 0 0.240016 0.970769 0 0.837843 0.545911 0 0.0439594 0.999033 0 0.551919 0.833898 0 0.949937 0.312441 0 0.971846 0.235617 0 0.23551 0.971872 0 0.510339 0.859973 0 0.860334 0.509731 0 0.928176 0.372143 0 0.997447 0.0714145 0 0.0713588 0.997451 0 0.0166342 0.999862 0 0.990719 0.135929 0 0.135373 0.990795 0 0.212228 0.97722 0 0.879921 0.47512 0 0.471591 0.881817 0 0.85591 0.517124 0 0.519061 0.854737 0 0.0341515 0.999417 0 0.287323 0.957834 0 0.954831 0.297149 0 0.98355 0.180636 0 0.615719 0.787966 0 0.786817 0.617186 0 0.411588 0.91137 0 0.999642 0.0267517 0 0.0154723 0.99988 0 0.00315916 0.999995 0 0.864858 0.502017 0 0.50166 0.865065 0 0.988795 0.149281 0 0.148413 0.988926 0 0.999363 0.035688 0 0.0356184 0.999365 0 0.997564 0.069754 0 0.320744 0.947166 0 0.946274 0.323366 0 0.487093 0.87335 0 0.871346 0.49067 0 0.905931 0.423425 0 0.383457 0.923559 0 0.923432 0.383761 0 0.997576 0.0695866 0 0.0735464 0.997292 0 0.926511 0.376268 0 0.37617 0.926551 0 0.974802 0.223071 0 0.219429 0.975628 0 0.00423937 0.999991 0 0.999676 0.0254701 0 0.0245258 0.999699 0 0.494798 0.869008 0 0.869194 0.494472 0 0.151658 0.988433 0 0.913673 0.406451 0 0.408706 0.912666 0 0.99828 0.0586265 0 0.875666 0.482916 0 0.995274 0.0971113 0 0.0944989 0.995525 0 0.256773 0.966472 0 0.966007 0.258514 0 0.122887 0.992421 0 0.995193 0.0979351 0 0.096734 0.99531 0 0.444473 0.895792 0 0.896051 0.443951 0 0.384741 0.923024 0 0.0575047 0.998345 0 0.999369 0.0355329 0 0.85616 0.516711 0 0.517356 0.85577 0 0.321803 0.946807 0 0.946619 0.322355 0 0.395158 0.918613 0 0.999387 0.034999 0 0.0348859 0.999391 0 0.999952 0.00981334 0 0.906725 0.421722 0 0.421672 0.906748 0 0.851948 0.523626 0 0.525119 0.851029 0 0.136015 0.990707 0 0.291211 0.956659 0 0.998081 0.0619192 0 0.0603142 0.998179 0 0.0494785 0.998775 0 0.999748 0.0224376 0 0.299755 0.954016 0 0.953415 0.301663 0 0.987078 0.160238 0 0.159888 0.987135 0 0.0160654 0.999871 0 0.682396 0.730983 0 0.843909 0.536486 0 0.53707 0.843538 0 0.999784 0.0207837 0 0.887842 0.460148 0 0.0192682 0.999814 0 0.989371 0.145412 0 0.556467 0.83087 0 0.832058 0.554688 0 0.994463 0.105089 0 0.768182 0.640232 0 0.6406 0.767875 0 0.700561 0.713592 0 0.470454 0.882425 0 0.882448 0.470409 0 0.299857 0.953984 0 0.995893 0.0905392 0 0.0948019 0.995496 0 0.0450231 0.998986 0 0.149095 0.988823 0 0.995876 0.0907271 0 0.984237 0.176856 0 0.176814 0.984244 0 0.182039 0.983291 0 0.982495 0.186288 0 0.0421082 0.999113 0 0.0150575 0.999887 0 0.949361 0.314187 0 0.313863 0.949468 0 0.92262 0.38571 0 0.386118 0.922449 0 0.294517 0.955646 0 0.998963 0.0455256 0 0.995816 0.0913855 0 0.0918729 0.995771 0 0.991619 0.129199 0 0.00290227 0.999996 0 0.459547 0.888154 0 0.853532 0.521041 0 0.521697 0.853131 0 0.953065 0.302766 0 0.302698 0.953086 0 0.481505 0.876444 0 0.875918 0.482459 0 0.451354 0.892345 0 0.892405 0.451235 0 0.984329 0.176341 0 0.175208 0.984531 0 0.873321 0.487146 0 0.488194 0.872735 0 0.372255 0.928131 0 0.936771 0.349942 0 0.348353 0.937363 0 0.98747 0.157804 0 0.205538 0.978649 0 0.923929 0.382564 0 0.382228 0.924068 0 0.857552 0.514398 0 0.514791 0.857315 0 0.997522 0.0703575 0 0.0703479 0.997523 0 0.998977 0.0452125 0 0.0451709 0.998979 0 0.998996 0.0447964 0 0.889044 0.457821 0 0.999733 0.0231052 0 0.102398 0.994744 0 0.998433 0.055957 0 0.0559361 0.998434 0 0.365335 0.930876 0 0.929407 0.369056 0 0.908212 0.418511 0 0.96247 0.271388 0 0.999078 0.0429292 0 0.98616 0.165794 0 0.165698 0.986176 0 0.833912 0.551897 0 0.552278 0.83366 0 0.501699 0.865042 0 0.9707 0.240293 0 0.240034 0.970764 0 0.999897 0.0143261 0 0.0143795 0.999897 0 0.952295 0.30518 0 0.149639 0.988741 0 0.988959 0.14819 0 0.840878 0.541225 0 0.54139 0.840772 0 0.925079 0.379776 0 0.0162621 0.999868 0 0.996814 0.0797595 0 0.0794942 0.996835 0 0.885312 0.464998 0 0.461344 0.887221 0 0.0229695 0.999736 0 0.260482 0.965479 0 0.965515 0.260349 0 0.0146649 0.999892 0 0.991266 0.131881 0 0.947115 0.320896 0 0.893635 0.448794 0 0.452668 0.891679 0 0.525098 0.851041 0 0.0283515 0.999598 0 0.877752 0.479115 0 0.479787 0.877385 0 0.532408 0.846488 0 0.843452 0.537205 0 0.065633 0.997844 0 0.889376 0.457176 0 0.446849 0.894609 0 0.926666 0.375885 0 0.755294 0.655386 0 0.654401 0.756148 0 0.489327 0.8721 0 0.872171 0.4892 0 0.0112587 0.999937 0 0.978915 0.204267 0 0.203598 0.979055 0 0.973145 0.230192 0 0.227581 0.973759 0 0.941202 0.337845 0 0.99956 0.0296662 0 0.0296341 0.999561 0 0.0142982 0.999898 0 0.466345 0.884603 0 0.137645 0.990482 0 0.990125 0.140188 0 0.993911 0.110183 0 0.110019 0.993929 0 0.904042 0.427443 0 0.998129 0.0611455 0 0.0607035 0.998156 0 0.298998 0.954254 0 0.953956 0.299945 0 0.413641 0.91044 0 0.910397 0.413736 0 0.505636 0.862747 0 0.862864 0.505436 0 0.999182 0.040432 0 0.816613 0.577186 0 0.867632 0.497207 0 0.414869 0.909881 0 0.992652 0.121003 0 0.120822 0.992674 0 0.123326 0.992366 0 0.992244 0.124309 0 0.890917 0.454166 0 0.455795 0.890085 0 0.95397 0.299903 0 0.302283 0.953218 0 0.45286 0.891582 0 0.89158 0.452863 0 0.3765 0.926417 0 0.996383 0.0849762 0 0.509834 0.860273 0 0.860419 0.509586 0 0.0372773 0.999305 0 0.937362 0.348357 0 0.348297 0.937384 0 0.906723 0.421726 0 0.904694 0.426062 0 0.426039 0.904705 0 0.99998 0.00640222 0 0.998521 0.0543738 0 0.277168 0.960822 0 0.101357 0.99485 0 0.495795 0.86844 0 0.868515 0.495663 0 0.692759 0.721169 0 0.718003 0.69604 0 0.321786 0.946812 0 0.999886 0.0150898 0 0.186875 0.982384 0 0.981565 0.191128 0 0.518563 0.85504 0 0.855271 0.51818 0 0.857266 0.514873 0 0.516703 0.856165 0 0.926917 0.375266 0 0.373193 0.927754 0 0.172703 0.984974 0 0.909495 0.415715 0 0.415688 0.909507 0 0.99351 0.113745 0 0.113672 0.993518 0 0.93363 0.358238 0 0.353879 0.935291 0 0.890011 0.455938 0 0.452573 0.891727 0 0.882114 0.471036 0 0.41281 0.910817 0 0.999233 0.0391559 0 0.0062808 0.99998 0 0.999964 0.00843739 0 0.866877 0.498523 0 0.49919 0.866493 0 0.963521 0.267632 0 0.267018 0.963692 0 0.973259 0.229709 0 0.939225 0.343303 0 0.204296 0.978909 0 0.999997 0.00241842 0 0.0784153 0.996921 0 0.99681 0.0798135 0 0.00651161 0.999979 0 0.992925 0.118747 0 0.118734 0.992926 0 0.234412 0.972137 0 0.977422 0.211296 0 0.0405861 0.999176 0 0.114262 0.993451 0 0.443785 0.896133 0 0.344331 0.938848 0 0.0635267 0.99798 0 0.499562 0.866278 0 0.865861 0.500284 0 0.164069 0.986449 0 0.17953 0.983753 0 0.966954 0.25495 0 0.254921 0.966962 0 0.999251 0.0387076 0 0.0387018 0.999251 0 0.998211 0.0597922 0 0.730815 0.682576 0 0.999293 0.0375975 0 0.847501 0.530794 0 0.999891 0.0147666 0 0.999748 0.0224305 0 0.0705045 0.997511 0 0.514861 0.857273 0 0.0126626 0.99992 0 0.99992 0.0126788 0 0.373404 0.927669 0 0.429796 0.902926 0 0.0238972 0.999714 0 0.522533 0.852619 0 0.853253 0.521498 0 0.9999 0.0141131 0 
VECTORS VY float