# vtk DataFile Version 3.0
Generated by GMDS VTK Writer

ASCII
DATASET UNSTRUCTURED_GRID
POINTS 429 float
0 0 0
10 0 0
10 10 0
0 10 0
5 5 0
5 6 0
5 4 0
10 8 0
8 10 0
8 0 0
8 2 0
10 2 0
2 0 0
0 2 0
0 8 0
2 8 0
2 10 0
0.0681483 8.51764 0
0.267949 9 0
0.585786 9.41421 0
1 9.73205 0
1.48236 9.93185 0
8.06815 9.48236 0
8.26795 9 0
8.58579 8.58579 0
9 8.26795 0
9.48236 8.06815 0
9.93185 1.48236 0
9.73205 1 0
9.41421 0.585786 0
9 0.267949 0
8.51764 0.0681483 0
1.93185 0.517638 0
1.73205 1 0
1.41421 1.41421 0
1 1.73205 0
0.517638 1.93185 0
4.5 5.86603 0
4.13397 5.5 0
4 5 0
4.13397 4.5 0
4.5 4.13397 0
5.5 4.13397 0
5.86603 4.5 0
6 5 0
5.86603 5.5 0
5.5 5.86603 0
2.6 10 0
3.2 10 0
3.8 10 0
4.4 10 0
5 10 0
5.6 10 0
6.2 10 0
6.8 10 0
7.4 10 0
10 7.4 0
10 6.8 0
10 6.2 0
10 5.6 0
10 5 0
10 4.4 0
10 3.8 0
10 3.2 0
10 2.6 0
7.4 0 0
6.8 0 0
6.2 0 0
5.6 0 0
5 0 0
4.4 0 0
3.8 0 0
3.2 0 0
2.6 0 0
0 2.6 0
0 3.2 0
0 3.8 0
0 4.4 0
0 5 0
0 5.6 0
0 6.2 0
0 6.8 0
0 7.4 0
7.40423 2.51702 0
2.59577 7.48298 0
3.22808 2.49959 0
6.77192 7.50041 0
2.04089 4.23258 0
7.95911 5.76742 0
5.1281 2.02954 0
4.8719 7.97046 0
8.35516 4.03878 0
1.64484 5.96122 0
1.83765 2.81175 0
8.16235 7.18825 0
1.50193 8.38218 0
8.49807 1.61782 0
6.51068 1.44164 0
3.48932 8.55836 0
6.13621 2.9438 0
3.86379 7.0562 0
3.98566 1.33177 0
6.01434 8.66823 0
7.06893 3.92922 0
2.93107 6.07078 0
3.19346 3.70438 0
6.80654 6.29562 0
4.39488 2.92655 0
5.60512 7.07345 0
8.64759 2.85741 0
1.35241 7.14259 0
2.93038 1.46946 0
7.06962 8.53054 0
2.90397 5.01245 0
7.09603 4.98755 0
8.83359 5.07675 0
1.16641 4.92325 0
1.0561 3.86069 0
8.9439 6.13931 0
7.54859 1.0807 0
2.45141 8.9193 0
4.44441 8.96403 0
5.55559 1.03597 0
5.28422 3.06879 0
4.71578 6.93121 0
2.07636 1.93041 0
7.92364 8.06959 0
0.891712 2.77948 0
9.10829 7.22052 0
7.72223 3.38432 0
2.27777 6.61568 0
0.840126 7.8407 0
9.15987 2.1593 0
2.02429 5.08995 0
7.97571 4.91005 0
9.10016 3.67655 0
0.899844 6.32345 0
2.65764 3.07556 0
7.34236 6.92444 0
4.06183 2.19614 0
5.93817 7.80386 0
4.71488 0.840201 0
5.28512 9.1598 0
6.23512 3.74471 0
3.76488 6.25529 0
5.99454 2.09862 0
4.00546 7.90138 0
3.95862 3.5789 0
6.04138 6.4211 0
8.29711 0.805185 0
1.70289 9.19481 0
3.31717 0.810896 0
6.68283 9.1891 0
6.92271 3.14649 0
3.07729 6.85351 0
3.40812 4.45042 0
6.59188 5.54958 0
7.21245 1.79058 0
2.78755 8.20942 0
6.59438 4.51025 0
3.40562 5.48975 0
6.70819 2.43506 0
3.29181 7.56494 0
8.21029 2.33581 0
1.78971 7.66419 0
0.944451 8.80995 0
9.05555 1.19005 0
1.50995 2.23946 0
8.49005 7.76054 0
3.33169 1.74994 0
6.66831 8.25006 0
2.21643 3.3997 0
7.78357 6.6003 0
6.89472 0.77995 0
3.10528 9.22005 0
9.24039 4.43292 0
0.759614 5.56708 0
2.61295 0.759447 0
7.38705 9.24055 0
0.715435 4.29422 0
9.28456 5.70578 0
3.45004 3.0104 0
6.54996 6.9896 0
7.56439 4.25704 0
2.43561 5.74296 0
2.58489 4.17933 0
7.41511 5.82067 0
4.43299 1.74884 0
5.56701 8.25116 0
2.60073 2.41467 0
7.39927 7.58533 0
4.5999 3.5068 0
5.4001 6.4932 0
3.83296 9.3021 0
6.16704 0.697902 0
0.650386 7.23352 0
9.34961 2.76648 0
4.83999 2.63872 0
5.16001 7.36128 0
1.48318 4.21453 0
8.51682 5.78547 0
4.07639 0.669474 0
5.92361 9.33053 0
5.56606 2.55074 0
4.43394 7.44926 0
7.85127 1.70018 0
2.14873 8.29982 0
2.2179 1.36412 0
7.7821 8.63588 0
8.34944 3.41486 0
1.65056 6.58514 0
5.65762 3.51889 0
4.34238 6.48111 0
4.97512 8.62545 0
5.02488 1.37455 0
0.618169 3.26703 0
9.38183 6.73297 0
7.80099 0.551504 0
2.19901 9.4485 0
8.03456 2.9278 0
1.96544 7.0722 0
4.3658 8.34043 0
5.6342 1.65957 0
0.593681 8.33266 0
9.40632 1.66734 0
1.33741 3.18286 0
8.66259 6.81714 0
3.02364 2.00678 0
6.97636 7.99322 0
2.72728 3.66481 0
7.27272 6.33519 0
2.41255 4.66827 0
7.58745 5.33173 0
8.47085 4.64213 0
1.52915 5.35787 0
3.85777 2.68748 0
6.14223 7.31252 0
3.46372 4.9466 0
6.53628 5.0534 0
3.79106 4.07582 0
6.20894 5.92418 0
5.19874 0.526939 0
4.80126 9.47306 0
9.34987 5.08588 0
0.65013 4.91412 0
0.976575 2.3142 0
9.02342 7.6858 0
8.81165 0.742019 0
1.18835 9.25798 0
7.0853 4.43472 0
2.9147 5.56528 0
7.02794 1.28719 0
2.97206 8.71281 0
1.68681 3.73865 0
8.31319 6.26135 0
4.52068 2.24879 0
5.47932 7.75121 0
6.45616 3.26817 0
3.54384 6.73183 0
1.67792 4.71391 0
8.32208 5.28609 0
1.34951 7.95918 0
8.65049 2.04082 0
8.05829 1.34122 0
1.94171 8.65878 0
0.501305 3.79985 0
9.4987 6.20015 0
8.83862 4.14309 0
1.16138 5.85691 0
3.38572 1.29519 0
6.61428 8.70481 0
0.454772 2.42483 0
9.54523 7.57517 0
3.94797 8.73984 0
6.05203 1.26016 0
9.49756 3.44242 0
0.502441 6.55758 0
1.59751 1.76563 0
8.40249 8.23437 0
6.50967 2.01265 0
3.49033 7.98735 0
7.49381 3.80878 0
2.50619 6.19122 0
5.11571 3.49375 0
4.88429 6.50625 0
9.49425 4.04079 0
0.50575 5.95921 0
7.80513 9.10941 0
2.19487 0.890588 0
7.26307 0.488874 0
2.73693 9.51113 0
2.11041 2.43115 0
7.88959 7.56885 0
4.82237 3.10665 0
5.17763 6.89335 0
0.405822 7.74384 0
9.59418 2.25616 0
4.46211 1.24608 0
5.53789 8.75392 0
5.72537 3.09841 0
4.27463 6.90159 0
7.45523 2.96001 0
2.54477 7.03999 0
7.52721 4.77754 0
2.47279 5.22246 0
3.05347 2.89215 0
6.94653 7.10785 0
6.234 4.23559 0
3.766 5.76441 0
1.10402 8.35731 0
8.89598 1.64269 0
4.25573 9.54784 0
5.74427 0.452162 0
2.93565 0.463582 0
7.06435 9.53642 0
1.31066 2.66555 0
8.68934 7.33445 0
3.97409 3.1339 0
6.02591 6.8661 0
1.39542 8.80375 0
8.60458 1.19625 0
8.21219 0.388227 0
1.78781 9.61177 0
6.25192 2.47737 0
3.74808 7.52263 0
2.54251 1.71419 0
7.45749 8.28581 0
8.96003 3.28644 0
1.03997 6.71356 0
2.23001 2.87353 0
7.76999 7.12647 0
7.24324 3.46711 0
2.75676 6.53289 0
3.55753 2.15049 0
6.44247 7.84951 0
6.58733 2.82681 0
3.41267 7.17319 0
6.57648 0.435249 0
3.42352 9.56475 0
7.67864 2.06839 0
2.32136 7.93161 0
8.02941 4.45626 0
1.97059 5.54374 0
3.0771 3.31221 0
6.9229 6.68779 0
0.37426 5.29097 0
9.62574 4.70903 0
3.81687 1.75401 0
6.18313 8.24599 0
2.95204 0.984642 0
7.04796 9.01536 0
7.93317 3.82002 0
2.06683 6.17998 0
7.03567 2.68642 0
2.96433 7.31358 0
6.66904 4.07139 0
3.33096 5.92861 0
6.04209 3.3148 0
3.95791 6.6852 0
3.75938 4.59457 0
6.24062 5.40543 0
7.09351 2.20227 0
2.90649 7.79773 0
4.68429 0.394074 0
5.31571 9.60593 0
2.98581 4.56654 0
7.01419 5.43346 0
2.36192 0.399808 0
7.63808 9.60019 0
1.19643 7.56804 0
8.80357 2.43196 0
3.57406 3.46927 0
6.42594 6.53073 0
3.51043 0.448674 0
6.48957 9.55133 0
5.58073 2.08462 0
4.41927 7.91538 0
5.85988 4.00864 0
4.14012 5.99136 0
4.27195 3.79697 0
5.72805 6.20303 0
1.81449 1.45195 0
8.18551 8.54805 0
3.86878 8.31037 0
6.13122 1.68963 0
6.22787 4.67099 0
3.77213 5.32901 0
1.77924 3.23401 0
8.22076 6.76599 0
0.39293 2.85427 0
9.60707 7.14573 0
3.13997 4.10663 0
6.86003 5.89337 0
2.26327 3.84958 0
7.73673 6.15042 0
2.57511 1.19707 0
7.42489 8.80293 0
3.4951 9.0107 0
6.5049 0.989301 0
7.51861 1.50103 0
2.48139 8.49897 0
5.12352 0.944414 0
4.87648 9.05559 0
0.54272 8.76138 0
9.45728 1.23862 0
3.6846 0.933405 0
6.3154 9.0666 0
8.69923 3.71829 0
1.30077 6.28171 0
4.25444 2.54538 0
5.74556 7.45462 0
7.92139 0.933722 0
2.07861 9.06628 0
5.35572 3.7825 0
4.64428 6.2175 0
8.19106 1.8799 0
1.80894 8.1201 0
7.78908 2.56102 0
2.21092 7.43898 0
6.76587 3.60451 0
3.23413 6.39549 0
8.90362 4.6735 0
1.09638 5.3265 0
1.42701 9.54998 0
8.57299 0.450025 0
1.12486 4.48679 0
8.87514 5.51321 0
6.83163 1.71117 0
3.16837 8.28883 0

CELLS 768 3072
3 199 117 425 
3 200 118 426 
3 425 117 179 
3 426 118 180 
3 59 180 266 
3 77 179 265 
3 116 234 259 
3 115 233 260 
3 127 215 225 
3 128 216 226 
3 35 167 277 
3 25 168 278 
3 85 181 235 
3 86 182 236 
3 333 227 85 
3 334 228 86 
3 137 329 171 
3 138 330 172 
3 147 191 317 
3 148 192 318 
3 99 323 203 
3 100 324 204 
3 133 259 234 
3 134 260 233 
3 14 223 295 
3 11 224 296 
3 107 317 191 
3 108 318 192 
3 117 225 215 
3 118 226 216 
3 169 227 333 
3 170 228 334 
3 125 189 325 
3 126 190 326 
3 109 163 219 
3 110 164 220 
3 113 160 237 
3 114 159 238 
3 109 370 163 
3 110 369 164 
3 70 71 201 
3 52 53 202 
3 75 265 215 
3 57 266 216 
3 19 248 165 
3 29 247 166 
3 189 227 325 
3 190 228 326 
3 105 391 239 
3 106 392 240 
3 89 187 255 
3 90 188 256 
3 77 244 179 
3 59 243 180 
3 125 167 291 
3 126 168 292 
3 19 165 403 
3 29 166 404 
3 93 291 167 
3 94 292 168 
3 105 239 371 
3 106 240 372 
3 14 17 223 
3 11 27 224 
3 40 41 239 
3 45 46 240 
3 123 203 197 
3 124 204 198 
3 76 77 265 
3 58 59 266 
3 89 197 203 
3 90 198 204 
3 75 76 265 
3 57 58 266 
3 7 272 26 
3 13 271 36 
3 159 249 355 
3 160 250 356 
3 90 256 198 
3 89 255 197 
3 85 227 189 
3 86 228 190 
3 171 329 387 
3 172 330 388 
3 41 379 239 
3 46 380 240 
3 137 171 229 
3 138 172 230 
3 113 250 160 
3 114 249 159 
3 93 167 315 
3 94 168 316 
3 35 245 167 
3 25 246 168 
3 85 189 305 
3 86 190 306 
3 111 227 169 
3 112 228 170 
3 99 203 299 
3 100 204 300 
3 137 305 189 
3 138 306 190 
3 103 355 249 
3 104 356 250 
3 6 191 41 
3 5 192 46 
3 52 202 364 
3 70 201 363 
3 125 277 167 
3 126 278 168 
3 63 64 196 
3 81 82 195 
3 174 290 338 
3 173 289 337 
3 90 213 188 
3 89 214 187 
3 119 289 173 
3 120 290 174 
3 103 249 183 
3 104 250 184 
3 48 338 290 
3 66 337 289 
3 145 203 323 
3 146 204 324 
3 139 187 347 
3 140 188 348 
3 119 173 251 
3 120 174 252 
3 24 25 278 
3 34 35 277 
3 101 297 201 
3 102 298 202 
3 16 47 218 
3 9 65 217 
3 101 347 187 
3 102 348 188 
3 101 269 347 
3 102 270 348 
3 117 265 179 
3 118 266 180 
3 205 339 415 
3 206 340 416 
3 111 169 269 
3 112 170 270 
3 141 201 297 
3 142 202 298 
3 85 235 333 
3 86 236 334 
3 7 56 272 
3 13 74 271 
3 107 197 409 
3 108 198 410 
3 167 245 315 
3 168 246 316 
3 85 305 181 
3 86 306 182 
3 103 183 281 
3 104 184 282 
3 175 421 243 
3 176 422 244 
3 105 229 391 
3 106 230 392 
3 169 347 269 
3 170 348 270 
3 132 296 224 
3 131 295 223 
3 18 19 403 
3 28 29 404 
3 148 380 192 
3 147 379 191 
3 185 391 229 
3 186 392 230 
3 87 231 185 
3 88 232 186 
3 90 221 213 
3 89 222 214 
3 63 196 275 
3 81 195 276 
3 142 364 202 
3 141 363 201 
3 127 315 245 
3 128 316 246 
3 93 387 329 
3 94 388 330 
3 415 339 163 
3 416 340 164 
3 164 369 261 
3 163 370 262 
3 87 253 199 
3 88 254 200 
3 175 243 346 
3 176 244 345 
3 161 361 279 
3 162 362 280 
3 109 219 209 
[...]
POINT_DATA 429
SCALARS GMDS_ID int 1
LOOKUP_TABLE default
0 1 2 3 4 5 6 7 8 9 10 11 12 13 14 15 16 17 18 19 20 21 22 23 24 25 26 27 28 29 30 31 32 33 34 35 36 37 38 39 40 41 42 43 44 45 46 47 48 49 50 51 52 53 54 55 56 57 58 59 60 61 62 63 64 65 66 67 68 69 70 71 72 73 74 75 76 77 78 79 80 81 82 83 84 85 86 87 88 89 90 91 92 93 94 95 96 97 98 99 100 101 102 103 104 105 106 107 108 109 110 111 112 113 114 115 116 117 118 119 120 121 122 123 124 125 126 127 128 129 130 131 132 133 134 135 136 137 138 139 140 141 142 143 144 145 146 147 148 149 150 151 152 153 154 155 156 157 158 159 160 161 162 163 164 165 166 167 168 169 170 171 172 173 174 175 176 177 178 179 180 181 182 183 184 185 186 187 188 189 190 191 192 193 194 195 196 197 198 199 200 201 202 203 204 205 206 207 208 209 210 211 212 213 214 215 216 217 218 219 220 221 222 223 224 225 226 227 228 229 230 231 232 233 234 235 236 237 238 239 240 241 242 243 244 245 246 247 248 249 250 251 252 253 254 255 256 257 258 259 260 261 262 263 264 265 266 267 268 269 270 271 272 273 274 275 276 277 278 279 280 281 282 283 284 285 286 287 288 289 290 291 292 293 294 295 296 297 298 299 300 301 302 303 304 305 306 307 308 309 310 311 312 313 314 315 316 317 318 319 320 321 322 323 324 325 326 327 328 329 330 331 332 333 334 335 336 337 338 339 340 341 342 343 344 345 346 347 348 349 350 351 352 353 354 355 356 357 358 359 360 361 362 363 364 365 366 367 368 369 370 371 372 373 374 375 376 377 378 379 380 381 382 383 384 385 386 387 388 389 390 391 392 393 394 395 396 397 398 399 400 401 402 403 404 405 406 407 408 409 410 411 412 413 414 415 416 417 418 419 420 421 422 423 424 425 426 427 428 
SCALARS angle float 1
LOOKUP_TABLE default
0 0 0 0 0 0 -0 0 0 0.261799 0 6.02139 0 0 6.02139 0 0.261799 5.23599 4.18879 3.14159 2.0944 1.0472 1.0472 2.0944 3.14159 4.18879 5.23599 5.23599 4.18879 3.14159 2.0944 1.0472 1.0472 2.0944 3.14159 4.18879 5.23599 2.0944 4.18879 6.28319 2.0944 4.18879 2.0944 4.18879 6.28319 2.0944 4.18879 0 0 0 0 0 0 0 0 0 0 0 0 0 0 0 0 0 0 0 0 0 0 0 0 0 0 0 0 0 0 0 0 0 0 0 0 6.09141 6.09141 6.16877 6.16877 6.13905 6.13905 6.15772 6.15772 6.14795 6.14795 5.79812 5.79812 6.01525 6.01525 6.21574 6.21574 5.97142 5.97142 0.0285642 0.0285642 5.84059 5.84059 6.08745 6.08745 5.91458 5.91458 6.11317 6.11317 0.376405 0.376405 6.05955 6.05955 6.19991 6.19991 6.17597 6.17597 0.0037443 0.0037443 6.24649 6.24649 5.97688 5.97688 6.08688 6.08688 5.77183 5.77183 6.06111 6.06111 5.96291 5.96291 6.13012 6.13012 6.21276 6.21276 6.04144 6.04144 6.17137 6.17137 6.27353 6.27353 5.42303 5.42303 6.13982 6.13982 5.04312 5.04312 0.325386 0.325386 0.198829 0.198829 5.972 5.972 0.460838 0.460838 6.17642 6.17642 5.30983 5.30983 6.09 6.09 6.07973 6.07973 4.94839 4.94839 4.75335 4.75335 0.109339 0.109339 6.0469 6.0469 6.27137 6.27137 6.23342 6.23342 0.716039 0.716039 6.23388 6.23388 5.98282 5.98282 6.02129 6.02129 6.1524 6.1524 6.22241 6.22241 6.14173 6.14173 5.5659 5.5659 6.26283 6.26283 6.14417 6.14417 6.04118 6.04118 6.16459 6.16459 0.0319159 0.0319159 6.06866 6.06866 6.16119 6.16119 1.38504 1.38504 6.13015 6.13015 5.8585 5.8585 6.23365 6.23365 6.14317 6.14317 0.176411 0.176411 6.09412 6.09412 6.19611 6.19611 5.3977 5.3977 5.96155 5.96155 0.0949394 0.0949394 6.09822 6.09822 6.13097 6.13097 6.17011 6.17011 6.03476 6.03476 6.17556 6.17556 1.30559 1.30559 6.27121 6.27121 6.23101 6.23101 5.02117 5.02117 0.971109 0.971109 5.83522 5.83522 6.23634 6.23634 6.10251 6.10251 6.13366 6.13366 5.86789 5.86789 6.16345 6.16345 6.00152 6.00152 6.22026 6.22026 6.2351 6.2351 6.19792 6.19792 0.172469 0.172469 5.96489 5.96489 6.22968 6.22968 6.24065 6.24065 3.33655 3.33655 6.15087 6.15087 6.0031 6.0031 5.99385 5.99385 6.25333 6.25333 1.3106 1.3106 0.0177391 0.0177391 5.80083 5.80083 5.90432 5.90432 6.0611 6.0611 6.26869 6.26869 5.94558 5.94558 6.05579 6.05579 6.06332 6.06332 6.07257 6.07257 4.7029 4.7029 5.74656 5.74656 6.27107 6.27107 0.255709 0.255709 5.51081 5.51081 5.7527 5.7527 6.08697 6.08697 0.662822 0.662822 6.07741 6.07741 0.507456 0.507456 6.17664 6.17664 5.95356 5.95356 5.97387 5.97387 6.2395 6.2395 6.01288 6.01288 6.27568 6.27568 6.12823 6.12823 6.11689 6.11689 6.0371 6.0371 6.25728 6.25728 0.00410195 0.00410195 0.428966 0.428966 6.08806 6.08806 6.06034 6.06034 5.48294 5.48294 5.83484 5.83484 1.21412 1.21412 6.12627 6.12627 6.28191 6.28191 6.23456 6.23456 0.739428 0.739428 6.0547 6.0547 5.74998 5.74998 0.0856545 0.0856545 6.14472 6.14472 4.80628 4.80628 4.45886 4.45886 2.943 2.943 6.19028 6.19028 4.54115 4.54115 5.98379 5.98379 6.12459 6.12459 0.00503401 0.00503401 6.10913 6.10913 0.817531 0.817531 6.25121 6.25121 6.2113 6.2113 6.2575 6.2575 4.62326 4.62326 0.0969693 0.0969693 6.17568 6.17568 6.06281 6.06281 0.0960255 0.0960255 6.11708 6.11708 6.08826 6.08826 6.09145 6.09145 5.79866 5.79866 6.20662 6.20662 0.896396 0.896396 6.20233 6.20233 6.18807 6.18807 
VECTORS cross_X float
1 0 0 1 0 0 1 0 0 1 0 0 1 0 0 1 0 0 1 0 0 1 0 0 1 0 0 0.997859 0.0654031 0 1 0 0 0.0654031 0.997859 0 1 0 0 1 0 0 0.0654031 0.997859 0 1 0 0 0.997859 0.0654031 0 0.258819 0.965926 0 0.5 0.866025 0 0.707107 0.707107 0 0.866025 0.5 0 0.965926 0.258819 0 0.965926 0.258819 0 0.866025 0.5 0 0.707107 0.707107 0 0.5 0.866025 0 0.258819 0.965926 0 0.258819 0.965926 0 0.5 0.866025 0 0.707107 0.707107 0 0.866025 0.5 0 0.965926 0.258819 0 0.965926 0.258819 0 0.866025 0.5 0 0.707107 0.707107 0 0.5 0.866025 0 0.258819 0.965926 0 0.866025 0.5 0 0.5 0.866025 0 2.38993e-12 1 0 0.866025 0.5 0 0.5 0.866025 0 0.866025 0.5 0 0.5 0.866025 0 2.39015e-12 1 0 0.866025 0.5 0 0.5 0.866025 0 1 0 0 1 0 0 1 0 0 1 0 0 1 0 0 1 0 0 1 0 0 1 0 0 1 0 0 1 0 0 1 0 0 1 0 0 1 0 0 1 0 0 1 0 0 1 0 0 1 0 0 1 0 0 1 0 0 1 0 0 1 0 0 1 0 0 1 0 0 1 0 0 1 0 0 1 0 0 1 0 0 1 0 0 1 0 0 1 0 0 1 0 0 1 0 0 1 0 0 1 0 0 1 0 0 1 0 0 0.0479264 0.998851 0 0.0479264 0.998851 0 0.0285996 0.999591 0 0.0285996 0.999591 0 0.0360265 0.999351 0 0.0360265 0.999351 0 0.0313612 0.999508 0 0.0313612 0.999508 0 0.0338036 0.999428 0 0.0338036 0.999428 0 0.120968 0.992656 0 0.120968 0.992656 0 0.0669338 0.997757 0 0.0669338 0.997757 0 0.0168602 0.999858 0 0.0168602 0.999858 0 0.0778628 0.996964 0 0.0778628 0.996964 0 0.999975 0.00714099 0 0.999975 0.00714099 0 0.110423 0.993885 0 0.110423 0.993885 0 0.0489151 0.998803 0 0.0489151 0.998803 0 0.0920215 0.995757 0 0.0920215 0.995757 0 0.042491 0.999097 0 0.042491 0.999097 0 0.995576 0.0939625 0 0.995576 0.0939625 0 0.0558807 0.998437 0 0.0558807 0.998437 0 0.0208184 0.999783 0 0.0208184 0.999783 0 0.0268013 0.999641 0 0.0268013 0.999641 0 1 0.000936075 0 1 0.000936075 0 0.00917471 0.999958 0 0.00917471 0.999958 0 0.0765014 0.997069 0 0.0765014 0.997069 0 0.0490558 0.998796 0 0.0490558 0.998796 0 0.127492 0.99184 0 0.127492 0.99184 0 0.0554895 0.998459 0 0.0554895 0.998459 0 0.0799842 0.996796 0 0.0799842 0.996796 0 0.0382566 0.999268 0 0.0382566 0.999268 0 0.0176053 0.999845 0 0.0176053 0.999845 0 0.0604004 0.998174 0 0.0604004 0.998174 0 0.0279497 0.999609 0 0.0279497 0.999609 0 0.00241294 0.999997 0 0.00241294 0.999997 0 0.213385 0.976968 0 0.213385 0.976968 0 0.035834 0.999358 0 0.035834 0.999358 0 0.305074 0.952329 0 0.305074 0.952329 0 0.996693 0.0812568 0 0.996693 0.0812568 0 0.998765 0.0496867 0 0.998765 0.0496867 0 0.0777179 0.996975 0 0.0777179 0.996975 0 0.993371 0.114955 0 0.993371 0.114955 0 0.0266872 0.999644 0 0.0266872 0.999644 0 0.240945 0.970539 0 0.240945 0.970539 0 0.0482765 0.998834 0 0.0482765 0.998834 0 0.0508409 0.998707 0 0.0508409 0.998707 0 0.32754 0.944837 0 0.32754 0.944837 0 0.373204 0.927749 0 0.373204 0.927749 0 0.999626 0.0273313 0 0.999626 0.0273313 0 0.0590367 0.998256 0 0.0590367 0.998256 0 0.00295262 0.999996 0 0.00295262 0.999996 0 0.01244 0.999923 0 0.01244 0.999923 0 0.98402 0.178055 0 0.98402 0.178055 0 0.0123251 0.999924 0 0.0123251 0.999924 0 0.0750215 0.997182 0 0.0750215 0.997182 0 0.0654272 0.997857 0 0.0654272 0.997857 0 0.0326893 0.999466 0 0.0326893 0.999466 0 0.0151924 0.999885 0 0.0151924 0.999885 0 0.0353569 0.999375 0 0.0353569 0.999375 0 0.178362 0.983965 0 0.178362 0.983965 0 0.00508778 0.999987 0 0.00508778 0.999987 0 0.0347463 0.999396 0 0.0347463 0.999396 0 0.0604644 0.99817 0 0.0604644 0.99817 0 0.0296448 0.99956 0 0.0296448 0.99956 0 0.999968 0.00797888 0 0.999968 0.00797888 0 0.0536048 0.998562 0 0.0536048 0.998562 0 0.030495 0.999535 0 0.030495 0.999535 0 0.940649 0.339382 0 0.940649 0.339382 0 0.0382503 0.999268 0 0.0382503 0.999268 0 0.105971 0.994369 0 0.105971 0.994369 0 0.0123846 0.999923 0 0.0123846 0.999923 0 0.0349974 0.999387 0 0.0349974 0.999387 0 0.999028 0.0440885 0 0.999028 0.0440885 0 0.0472477 0.998883 0 0.0472477 0.998883 0 0.0217675 0.999763 0 0.0217675 0.999763 0 0.219567 0.975597 0 0.219567 0.975597 0 0.0803234 0.996769 0 0.0803234 0.996769 0 0.999718 0.0237326 0 0.999718 0.0237326 0 0.046226 0.998931 0 0.046226 0.998931 0 0.0380446 0.999276 0 0.0380446 0.999276 0 0.028265 0.9996 0 0.028265 0.9996 0 0.0620668 0.998072 0 0.0620668 0.998072 0 0.0269032 0.999638 0 0.0269032 0.999638 0 0.947204 0.320632 0 0.947204 0.320632 0 0.00299454 0.999996 0 0.00299454 0.999996 0 0.0130424 0.999915 0 0.0130424 0.999915 0 0.310295 0.95064 0 0.310295 0.95064 0 0.970674 0.240399 0 0.970674 0.240399 0 0.111757 0.993736 0 0.111757 0.993736 0 0.0117104 0.999931 0 0.0117104 0.999931 0 0.0451532 0.99898 0 0.0451532 0.99898 0 0.0373718 0.999301 0 0.0373718 0.999301 0 0.103638 0.994615 0 0.103638 0.994615 0 0.0299304 0.999552 0 0.0299304 0.999552 0 0.0703582 0.997522 0 0.0703582 0.997522 0 0.015731 0.999876 0 0.015731 0.999876 0 0.0120215 0.999928 0 0.0120215 0.999928 0 0.0213151 0.999773 0 0.0213151 0.999773 0 0.999071 0.0431038 0 0.999071 0.0431038 0 0.0794893 0.996836 0 0.0794893 0.996836 0 0.0133767 0.999911 0 0.0133767 0.999911 0 0.0106344 0.999943 0 0.0106344 0.999943 0 0.671816 0.740718 0 0.671816 0.740718 0 0.0330731 0.999453 0 0.0330731 0.999453 0 0.0699639 0.99755 0 0.0699639 0.99755 0 0.0722717 0.997385 0 0.0722717 0.997385 0 0.00746274 0.999972 0 0.00746274 0.999972 0 0.946802 0.321818 0 0.946802 0.321818 0 0.99999 0.00443476 0 0.99999 0.00443476 0 0.120296 0.992738 0 0.120296 0.992738 0 0.0945747 0.995518 0 0.0945747 0.995518 0 0.0554922 0.998459 0 0.0554922 0.998459 0 0.00362477 0.999993 0 0.00362477 0.999993 0 0.0843008 0.99644 0 0.0843008 0.99644 0 0.0568172 0.998385 0 0.0568172 0.998385 0 0.0549391 0.99849 0 0.0549391 0.99849 0 0.0526296 0.998614 0 0.0526296 0.998614 0 0.384873 0.92297 0 0.384873 0.92297 0 0.133755 0.991014 0 0.133755 0.991014 0 0.00302912 0.999995 0 0.00302912 0.999995 0 0.997957 0.0638838 0 0.997957 0.0638838 0 0.191897 0.981415 0 0.191897 0.981415 0 0.132233 0.991219 0 0.132233 0.991219 0 0.0490348 0.998797 0 0.0490348 0.998797 0 0.986302 0.164948 0 0.986302 0.164948 0 0.0514204 0.998677 0 0.0514204 0.998677 0 0.991964 0.126524 0 0.991964 0.126524 0 0.0266331 0.999645 0 0.0266331 0.999645 0 0.0823123 0.996607 0 0.0823123 0.996607 0 0.0772524 0.997012 0 0.0772524 0.997012 0 0.0109209 0.99994 0 0.0109209 0.99994 0 0.0675259 0.997718 0 0.0675259 0.997718 0 0.00187696 0.999998 0 0.00187696 0.999998 0 0.0387301 0.99925 0 0.0387301 0.99925 0 0.0415609 0.999136 0 0.0415609 0.999136 0 0.0614827 0.998108 0 0.0614827 0.998108 0 0.00647524 0.999979 0 0.00647524 0.999979 0 0.999999 0.00102549 0 0.999999 0.00102549 0 0.994255 0.107036 0 0.994255 0.107036 0 0.048763 0.99881 0 0.048763 0.99881 0 0.0556821 0.998449 0 0.0556821 0.998449 0 0.198729 0.980054 0 0.198729 0.980054 0 0.111851 0.993725 0 0.111851 0.993725 0 0.954288 0.29889 0 0.954288 0.29889 0 0.0392178 0.999231 0 0.0392178 0.999231 0 0.000320009 1 0 0.000320009 1 0 0.0121559 0.999926 0 0.0121559 0.999926 0 0.982963 0.183806 0 0.982963 0.183806 0 0.0570907 0.998369 0 0.0570907 0.998369 0 0.132908 0.991128 0 0.132908 0.991128 0 0.999771 0.021412 0 0.999771 0.021412 0 0.0346091 0.999401 0 0.0346091 0.999401 0 0.360893 0.932607 0 0.360893 0.932607 0 0.440434 0.897785 0 0.440434 0.897785 0 0.741327 0.671144 0 0.741327 0.671144 0 0.0232252 0.99973 0 0.0232252 0.99973 0 0.421872 0.906655 0 0.421872 0.906655 0 0.0747798 0.9972 0 0.0747798 0.9972 0 0.0396376 0.999214 0 0.0396376 0.999214 0 0.999999 0.0012585 0 0.999999 0.0012585 0 0.0435003 0.999053 0 0.0435003 0.999053 0 0.979186 0.202963 0 0.979186 0.202963 0 0.00799419 0.999968 0 0.00799419 0.999968 0 0.0179702 0.999839 0 0.0179702 0.999839 0 0.00642028 0.999979 0 0.00642028 0.999979 0 0.403173 0.915124 0 0.403173 0.915124 0 0.999706 0.02424 0 0.999706 0.02424 0 0.0268731 0.999639 0 0.0268731 0.999639 0 0.0550657 0.998483 0 0.0550657 0.998483 0 0.999712 0.0240041 0 0.999712 0.0240041 0 0.0415153 0.999138 0 0.0415153 0.999138 0 0.0487114 0.998813 0 0.0487114 0.998813 0 0.0479146 0.998851 0 0.0479146 0.998851 0 0.120836 0.992673 0 0.120836 0.992673 0 0.0191412 0.999817 0 0.0191412 0.999817 0 0.974995 0.222228 0 0.974995 0.222228 0 0.0202131 0.999796 0 0.0202131 0.999796 0 0.0237764 0.999717 0 0.0237764 0.999717 0 
VECTORS VY float