# vtk DataFile Version 3.0
Generated by GMDS VTK Writer

ASCII
DATASET UNSTRUCTURED_GRID
POINTS 369 float
0 0 0
10 0 0
10 10 0
0 10 0
3 10 0
3.5 10 0
6.5 10 0
6.5 0 0
3.5 0 0
0 3.5 0
0 6.5 0
10 6.5 0
10 3.5 0
0.498102 6.53562 0
0.986064 6.64177 0
1.45395 6.81629 0
1.89224 7.05561 0
2.29201 7.35488 0
2.64512 7.70799 0
2.94439 8.10776 0
3.18371 8.54605 0
3.35823 9.01394 0
3.46438 9.5019 0
6.53562 9.5019 0
6.64177 9.01394 0
6.81629 8.54605 0
7.05561 8.10776 0
7.35488 7.70799 0
7.70799 7.35488 0
8.10776 7.05561 0
8.54605 6.81629 0
9.01394 6.64177 0
9.5019 6.53562 0
9.5019 3.46438 0
9.01394 3.35823 0
8.54605 3.18371 0
8.10776 2.94439 0
7.70799 2.64512 0
7.35488 2.29201 0
7.05561 1.89224 0
6.81629 1.45395 0
6.64177 0.986064 0
6.53562 0.498102 0
0.498102 3.46438 0
0.986064 3.35823 0
1.45395 3.18371 0
1.89224 2.94439 0
2.29201 2.64512 0
2.64512 2.29201 0
2.94439 1.89224 0
3.18371 1.45395 0
3.35823 0.986064 0
3.46438 0.498102 0
4 10 0
4.5 10 0
5 10 0
5.5 10 0
6 10 0
10 6 0
10 5.5 0
10 5 0
10 4.5 0
10 4 0
6 0 0
5.5 0 0
5 0 0
4.5 0 0
4 0 0
0 4 0
0 4.5 0
0 5 0
0 5.5 0
0 6 0
5.05277 4.93182 0
2.69523 5.08722 0
5 7.23372 0
7.30832 5.08932 0
4.97007 2.82011 0
3.5006 6.44959 0
6.41346 6.38451 0
3.57841 3.60109 0
6.34298 3.51853 0
1.3913 4.70488 0
8.6087 4.70488 0
5.29512 8.6087 0
4.70488 1.3913 0
1.89065 5.70645 0
8.10935 5.70645 0
4.29355 8.10935 0
5.73626 1.96949 0
3.75524 5.25649 0
4.72165 6.10848 0
6.09572 5.2978 0
4.7226 3.88314 0
2.48731 3.91025 0
6.11599 7.4783 0
7.46279 3.91534 0
3.87355 2.57404 0
5.73949 4.42651 0
2.58613 6.36746 0
7.37713 6.39817 0
3.61042 7.36841 0
6.46161 2.50323 0
0.886289 5.70059 0
9.11371 5.70059 0
5.58893 0.932737 0
4.29941 9.11371 0
3.44201 4.48136 0
5.6295 6.01578 0
5.47677 3.51029 0
6.64664 4.42604 0
2.90992 3.21202 0
3.11756 5.7579 0
4.37325 6.92849 0
6.8883 5.74187 0
6.81777 7.09266 0
7.09266 3.18223 0
4.28974 4.59262 0
1.66754 3.95788 0
6.06401 8.32039 0
8.32039 3.93599 0
3.95788 1.66754 0
5.68247 6.80189 0
4.29877 3.20253 0
0.841664 4.16366 0
9.15834 4.16366 0
5.83634 9.15834 0
4.16366 0.841664 0
2.16659 4.55826 0
5.40687 7.82721 0
7.84246 4.57218 0
4.56695 2.14084 0
2.95233 7.04767 0
5.71023 2.80319 0
0.690803 4.90618 0
9.3092 4.90618 0
5.09382 9.3092 0
5.00965 0.718115 0
4.08066 5.91934 0
2.05673 6.41163 0
6.40257 2.0322 0
8.01527 6.40126 0
3.58469 7.9357 0
1.30336 6.0874 0
6.09272 1.31354 0
8.69664 6.0874 0
3.9126 8.69664 0
4.515 5.43435 0
2.58423 5.55066 0
7.41467 5.54828 0
4.40795 7.46092 0
5.12449 4.35868 0
3.15959 2.35608 0
2.41176 3.21478 0
5.44968 5.30131 0
4.21172 4.02702 0
5.19967 2.19214 0
1.85285 5.26612 0
4.73388 8.14715 0
8.14715 5.26612 0
5.07973 6.60309 0
2.91866 4.37501 0
5.27638 1.47712 0
7.16339 4.3278 0
6.70584 7.63676 0
7.61051 3.29075 0
6.57756 5.00033 0
6.9459 3.93763 0
3.68726 3.12555 0
3.11183 3.61607 0
3.42675 5.00332 0
6.1332 5.86228 0
4.95334 3.35411 0
3.99099 9.42643 0
0.573575 6.00901 0
6.00087 0.57696 0
9.42643 6.00901 0
6.22873 6.92867 0
5.02035 5.65347 0
4.4334 2.65668 0
7.34504 6.94483 0
6.94483 2.65496 0
5.60555 7.35031 0
6.15913 3.11336 0
6.16694 4.7298 0
5.47994 4.82129 0
1.16387 3.85196 0
8.838 3.8467 0
6.1533 8.838 0
3.85196 1.16387 0
5.94415 3.86803 0
3.50975 1.89608 0
1.90404 3.51763 0
6.88518 6.58874 0
3.37881 6.91073 0
3.14606 7.68449 0
2.36272 6.84377 0
1.46729 5.54181 0
8.53271 5.54181 0
4.45819 8.53271 0
5.97116 2.3451 0
3.05589 6.20498 0
3.69704 5.74368 0
4.28973 6.38178 0
0.480875 5.28598 0
9.51912 5.28598 0
4.71402 9.51912 0
5.27753 0.383444 0
6.55321 8.16476 0
8.16038 3.44622 0
5.47724 3.97819 0
3.27685 4.01345 0
2.24778 5.9389 0
7.7571 5.94147 0
4.0515 7.7511 0
5.93109 6.40391 0
3.82971 4.78639 0
6.55174 3.03049 0
1.07739 5.11628 0
8.92261 5.11628 0
4.88372 8.92261 0
2.25795 5.04837 0
7.7475 5.05594 0
4.87378 7.68181 0
4.91221 1.86184 0
4.55665 4.97896 0
6.20252 4.287 0
5.14041 6.14664 0
4.78035 6.89396 0
5.34041 3.06773 0
6.53335 5.45854 0
6.77793 2.22756 0
7.79309 6.81135 0
2.10138 4.03191 0
5.84226 7.8498 0
7.88309 4.14027 0
4.04955 2.13565 0
4.66028 4.32467 0
1.72378 4.40376 0
5.59624 8.27622 0
8.27622 4.40376 0
4.416 1.73291 0
5.05701 1.11332 0
0.464705 4.4568 0
9.53529 4.4568 0
5.5432 9.53529 0
4.46736 0.467492 0
0.438297 3.90818 0
9.5617 3.90818 0
6.09182 9.5617 0
3.90818 0.438297 0
1.29732 4.28834 0
8.70098 4.28381 0
5.71619 8.70098 0
4.29038 1.29884 0
7.23934 5.95747 0
4.05886 7.25137 0
2.71832 5.96398 0
3.99136 3.49482 0
6.89011 6.15528 0
3.89685 4.38058 0
2.7889 2.75356 0
3.85118 6.74792 0
0.894269 6.20919 0
3.79081 9.10573 0
9.10573 6.20919 0
6.21739 0.919951 0
6.94214 5.26035 0
7.18097 3.56033 0
7.16832 7.32875 0
7.32875 2.83168 0
5.55346 2.34236 0
3.04912 5.26003 0
6.78209 3.50628 0
4.66325 3.05517 0
2.58375 4.67115 0
1.49211 3.59708 0
3.59708 1.49211 0
5.47245 6.47242 0
4.02557 2.94551 0
2.95956 6.6357 0
5.7743 5.64219 0
3.32048 3.27122 0
7.01949 4.79828 0
5.70205 1.49717 0
5.13671 3.79132 0
5.28665 6.9737 0
6.47824 7.26289 0
4.45937 3.54255 0
8.44697 6.43596 0
3.56318 8.44214 0
1.5574 6.43659 0
6.44186 1.55597 0
3.01925 4.81302 0
5.92226 3.43469 0
8.54744 3.57529 0
6.42949 8.55438 0
2.84278 3.96771 0
0.960529 4.60602 0
5.39473 9.03919 0
9.03919 4.60527 0
4.61549 0.971788 0
6.25177 9.21477 0
9.21477 3.74823 0
0.7856 3.74928 0
3.74928 0.7856 0
7.43984 4.69362 0
6.49599 3.95364 0
5.90984 7.13529 0
3.7222 4.00746 0
4.46152 5.82344 0
4.87115 2.39577 0
6.25626 7.89 0
7.8757 3.74268 0
2.67823 7.32177 0
4.69505 6.50385 0
3.45616 6.07333 0
5.24255 7.48382 0
5.82518 4.95227 0
2.48203 4.26839 0
4.112 5.53326 0
4.17243 5.07565 0
4.7614 4.66258 0
1.74407 6.09527 0
8.25593 6.09527 0
6.08551 1.75487 0
3.90473 8.25593 0
7.55831 4.32984 0
2.15891 5.49313 0
4.47213 7.83007 0
7.84241 5.49424 0
0.330635 5.72053 0
9.66936 5.72053 0
5.69728 0.315794 0
4.27947 9.66936 0
3.24446 7.2767 0
3.77595 9.70389 0
0.296112 6.22405 0
6.22405 0.296112 0
9.70389 6.22405 0
3.40376 5.40817 0
6.57168 5.9205 0
5.37833 1.85404 0
1.81372 4.83976 0
5.14145 8.17521 0
8.1887 4.84334 0
2.30609 3.63396 0
3.60155 2.2906 0
2.65695 3.56002 0
3.33446 2.79758 0
1.51175 5.08331 0
4.914 8.48667 0
8.48859 5.08383 0
3.85051 6.23062 0
6.60145 6.80107 0
5.72176 3.18585 0
5.3948 5.74227 0
4.90201 5.28039 0
6.06793 2.76542 0
9.67272 4.82979 0
5.17021 9.67272 0
4.86929 0.33402 0
0.327277 4.82979 0
1.86461 6.71278 0
8.18183 6.7041 0
3.28441 8.14323 0
6.69885 1.83238 0
5.29595 2.63497 0
4.66704 7.23299 0

CELLS 658 2632
3 324 198 87 
3 326 199 88 
3 323 86 197 
3 143 323 197 
3 145 198 324 
3 146 199 326 
3 68 243 247 
3 62 248 244 
3 67 250 246 
3 57 249 245 
3 103 143 197 
3 104 198 145 
3 106 199 146 
3 26 27 164 
3 36 37 165 
3 168 258 279 
3 122 177 215 
3 78 280 194 
3 103 263 143 
3 104 145 265 
3 106 146 264 
3 105 144 266 
3 105 207 137 
3 105 137 242 
3 27 269 164 
3 37 270 165 
3 68 69 243 
3 66 67 246 
3 61 62 244 
3 56 57 245 
3 78 201 280 
3 103 218 204 
3 104 205 219 
3 106 206 220 
3 134 204 218 
3 135 219 205 
3 136 220 206 
3 101 195 142 
3 99 139 196 
3 48 152 49 
3 46 153 47 
3 110 163 167 
3 117 237 155 
3 93 155 237 
3 73 185 151 
3 98 151 185 
3 79 215 177 
3 102 140 200 
3 80 258 168 
3 96 167 163 
3 101 256 262 
3 93 151 285 
3 101 262 194 
3 118 233 192 
3 121 191 236 
3 106 264 173 
3 104 265 176 
3 105 266 175 
3 103 174 263 
3 14 291 143 
3 41 144 292 
3 31 145 289 
3 21 146 290 
3 111 153 348 
3 192 233 346 
3 191 347 236 
3 48 261 152 
3 47 153 261 
3 97 179 236 
3 100 255 259 
3 111 261 153 
3 132 280 196 
3 49 152 191 
3 46 192 153 
3 100 259 193 
3 76 267 149 
3 114 149 267 
3 99 212 139 
3 100 141 213 
3 101 142 214 
3 100 232 141 
3 102 231 140 
3 73 154 185 
3 73 357 154 
3 14 143 263 
3 41 266 144 
3 21 264 146 
3 31 265 145 
3 107 211 161 
3 92 166 184 
3 110 184 166 
3 131 236 179 
3 105 284 144 
3 204 331 103 
3 207 105 333 
3 205 104 332 
3 206 106 334 
3 97 347 349 
3 97 349 168 
3 111 348 169 
3 331 174 103 
3 333 105 175 
3 332 104 176 
3 334 106 173 
3 74 148 272 
3 112 272 148 
3 123 279 258 
3 151 210 285 
3 98 210 151 
3 86 157 197 
3 87 198 159 
3 88 199 158 
3 98 318 184 
3 130 222 345 
3 129 223 344 
3 128 343 221 
3 98 185 318 
3 115 180 193 
3 100 193 180 
3 202 316 353 
3 154 357 178 
3 73 151 322 
3 81 217 183 
3 140 325 200 
3 138 202 353 
3 152 261 349 
3 108 215 171 
3 79 171 215 
3 90 216 170 
3 107 170 216 
3 74 221 148 
3 76 149 222 
3 115 164 269 
3 116 165 270 
3 132 196 314 
3 95 182 234 
3 129 234 182 
3 368 113 150 
3 150 113 256 
3 112 148 257 
3 114 255 149 
3 99 196 280 
3 93 237 151 
3 159 345 222 
3 158 344 223 
3 157 221 343 
3 183 217 358 
3 358 217 102 
3 26 164 208 
3 36 165 209 
3 92 318 154 
3 70 71 204 
3 59 60 205 
3 64 65 207 
3 54 55 206 
3 93 288 155 
3 118 186 251 
3 120 252 187 
3 119 253 188 
3 121 254 189 
3 118 251 238 
3 120 240 252 
3 119 239 253 
3 121 241 254 
3 86 328 157 
3 88 158 329 
3 87 159 330 
3 92 154 281 
3 89 200 325 
3 117 155 260 
3 28 232 180 
3 38 231 181 
3 81 190 307 
3 172 274 288 
3 45 192 46 
3 49 191 50 
3 124 247 243 
3 125 244 248 
3 127 246 250 
3 126 245 249 
3 142 195 365 
3 139 363 196 
3 107 161 293 
3 80 169 211 
3 105 162 284 
3 105 242 162 
3 190 226 307 
3 92 171 230 
3 85 224 162 
3 160 227 315 
3 128 221 275 
3 14 15 291 
3 40 41 292 
3 30 31 289 
3 20 21 290 
3 91 315 227 
3 110 167 307 
3 81 273 217 
3 122 308 177 
3 93 172 288 
3 6 23 249 
3 12 33 248 
3 9 247 43 
3 8 52 250 
3 9 68 247 
3 12 248 62 
3 6 249 57 
3 8 250 67 
3 96 165 268 
3 116 268 165 
3 28 29 232 
3 38 39 231 
3 152 349 347 
3 89 342 271 
3 70 204 362 
3 60 359 205 
3 65 361 207 
3 55 360 206 
3 111 349 261 
3 147 310 178 
3 91 178 310 
3 156 311 367 
3 195 335 314 
3 85 162 242 
3 79 341 171 
3 123 288 274 
3 91 227 178 
3 130 306 222 
3 160 228 286 
3 75 286 228 
3 97 279 179 
3 129 317 223 
3 13 263 174 
3 42 175 266 
3 22 173 264 
3 32 176 265 
3 109 229 172 
3 77 172 229 
3 92 230 166 
3 98 190 210 
3 109 210 190 
3 166 267 283 
3 283 267 76 
3 96 163 327 
3 100 180 232 
3 102 181 231 
3 138 203 310 
3 91 310 203 
3 110 283 163 
3 44 186 276 
3 51 277 189 
3 113 203 262 
3 25 26 208 
3 35 36 209 
3 98 184 226 
3 110 226 184 
3 38 181 270 
3 28 180 269 
3 89 271 200 
3 90 170 340 
3 95 164 287 
3 115 287 164 
3 312 164 95 
3 96 313 165 
3 116 181 217 
3 102 217 181 
3 18 19 195 
3 16 17 196 
3 110 166 283 
3 107 293 170 
3 19 365 195 
3 16 196 363 
3 109 172 285 
3 92 281 171 
3 156 271 342 
3 96 268 167 
3 156 224 311 
3 131 311 224 
3 293 74 272 
3 170 293 272 
3 18 195 314 
3 17 314 196 
3 124 243 298 
3 125 300 244 
3 126 299 245 
3 127 301 246 
3 80 168 282 
3 80 282 169 
3 111 169 282 
3 97 168 279 
3 77 367 311 
3 148 328 212 
3 150 214 329 
3 149 213 330 
3 86 212 328 
3 88 329 214 
3 87 330 213 
3 77 274 172 
3 93 285 172 
3 108 171 281 
3 45 276 192 
3 50 191 277 
3 167 273 307 
3 44 276 45 
3 50 277 51 
3 81 307 273 
3 161 211 297 
3 24 296 188 
3 34 295 187 
3 203 353 262 
3 13 174 337 
3 22 336 173 
3 42 338 175 
3 32 339 176 
3 132 194 280 
3 123 179 279 
3 113 315 203 
3 154 318 185 
3 90 202 320 
3 138 320 202 
3 80 309 258 
3 160 286 278 
3 132 314 335 
3 147 321 320 
3 81 183 294 
3 37 38 270 
3 27 28 269 
3 103 197 218 
3 104 219 198 
3 106 220 199 
3 77 311 179 
3 155 258 309 
3 131 179 311 
3 139 212 323 
3 142 326 214 
3 141 324 213 
3 79 177 354 
3 122 278 286 
3 86 323 212 
3 88 214 326 
3 87 213 324 
3 95 287 177 
3 98 226 190 
3 95 177 308 
3 182 286 317 
3 13 14 263 
3 41 42 266 
3 21 22 264 
3 31 32 265 
3 81 294 190 
3 134 298 243 
3 135 244 300 
3 136 245 299 
3 137 246 301 
3 113 228 315 
3 75 317 286 
3 74 275 221 
3 24 25 296 
3 34 35 295 
3 113 262 256 
3 122 286 182 
3 156 367 271 
3 147 178 357 
3 154 178 356 
3 124 186 304 
3 125 303 187 
3 126 302 188 
3 127 305 189 
3 114 259 255 
3 124 251 186 
3 125 187 252 
3 126 188 253 
3 127 189 254 
3 121 277 191 
3 118 192 276 
3 82 238 251 
3 83 252 240 
3 84 253 239 
3 85 254 241 
3 123 274 179 
3 77 179 274 
3 115 269 180 
3 116 270 181 
3 178 227 356 
3 107 309 211 
3 79 259 341 
3 133 355 183 
3 97 236 347 
3 94 346 233 
3 112 257 201 
3 99 201 257 
3 133 183 358 
3 147 225 321 
3 163 283 306 
3 76 306 283 
3 131 224 241 
3 85 241 224 
3 78 353 316 
3 95 308 182 
3 90 340 202 
3 122 182 308 
3 74 293 275 
3 161 275 293 
3 129 182 317 
3 119 188 296 
3 120 187 295 
3 135 205 359 
3 136 206 360 
3 134 362 204 
3 137 207 361 
3 119 208 312 
3 120 209 313 
3 92 184 318 
3 79 193 259 
3 118 276 186 
3 121 189 277 
3 171 341 230 
3 44 304 186 
3 34 187 303 
3 24 188 302 
3 51 189 305 
3 109 190 294 
3 109 285 210 
3 148 212 257 
3 150 256 214 
3 149 255 213 
3 78 194 262 
3 152 347 191 
3 153 192 346 
3 155 288 258 
3 128 233 238 
3 130 240 235 
3 129 239 234 
3 131 241 236 
3 118 238 233 
3 120 235 240 
3 119 234 239 
3 121 236 241 
3 69 70 362 
3 60 61 359 
3 65 66 361 
3 55 56 360 
3 79 354 193 
3 99 257 212 
3 100 213 255 
3 101 214 256 
3 53 334 336 
3 58 332 339 
3 63 333 338 
3 72 337 331 
3 76 222 306 
3 107 260 309 
3 133 200 271 
3 47 261 48 
3 112 201 316 
3 162 224 342 
3 117 260 216 
3 117 225 322 
3 161 297 319 
3 132 335 194 
3 101 194 335 
3 173 336 334 
3 176 339 332 
3 175 338 333 
3 174 331 337 
3 116 217 273 
3 113 368 228 
3 119 312 234 
3 120 313 235 
3 112 316 202 
3 82 298 218 
3 83 219 300 
3 84 220 299 
3 134 218 298 
3 135 300 219 
3 136 299 220 
3 99 280 201 
3 90 320 321 
3 177 287 354 
3 115 354 287 
3 75 368 223 
3 150 223 368 
3 119 296 208 
3 120 295 209 
3 115 193 354 
3 117 322 237 
3 164 312 208 
3 165 313 209 
3 107 216 260 
3 168 349 282 
3 108 278 215 
3 111 282 349 
3 133 358 200 
3 102 200 358 
3 124 298 251 
3 125 252 300 
3 126 253 299 
3 127 254 301 
3 94 319 297 
3 117 216 321 
3 80 211 309 
3 112 202 340 
3 157 350 197 
3 159 198 352 
3 158 199 351 
3 169 297 211 
3 124 304 247 
3 125 248 303 
3 126 249 302 
3 127 250 305 
3 101 335 195 
3 33 34 303 
3 23 24 302 
3 51 305 52 
3 43 304 44 
3 108 356 227 
3 53 54 334 
3 58 59 332 
3 63 64 333 
3 71 72 331 
3 25 208 296 
3 35 209 295 
3 78 316 201 
3 69 362 243 
3 61 244 359 
3 66 246 361 
3 56 245 360 
3 147 357 225 
3 73 225 357 
3 91 203 315 
3 78 262 353 
3 122 215 278 
3 156 342 224 
3 160 278 227 
3 110 307 226 
3 117 321 225 
3 166 230 267 
3 114 267 230 
3 138 353 203 
3 108 227 278 
3 10 337 72 
3 7 63 338 
3 11 58 339 
3 5 53 336 
3 5 336 22 
3 10 13 337 
3 7 338 42 
3 11 339 32 
3 17 18 314 
3 89 284 342 
3 162 342 284 
3 59 205 332 
3 64 207 333 
3 71 331 204 
3 54 206 334 
3 159 222 330 
3 157 328 221 
3 158 223 329 
3 144 284 325 
3 94 297 348 
3 169 348 297 
3 160 315 228 
3 19 20 365 
3 29 30 364 
3 39 40 366 
3 15 16 363 
3 151 237 322 
3 197 350 218 
3 198 219 352 
3 199 220 351 
3 128 319 233 
3 75 223 317 
3 90 321 216 
3 167 268 273 
3 89 325 284 
3 85 242 301 
3 137 301 242 
3 39 366 231 
3 29 364 232 
3 140 231 366 
3 141 232 364 
3 183 355 294 
3 96 327 235 
3 116 273 268 
3 82 343 238 
3 84 239 344 
3 83 240 345 
3 82 218 350 
3 83 352 219 
3 84 351 220 
3 123 258 288 
3 84 344 351 
3 82 350 343 
3 83 345 352 
3 128 275 319 
3 23 302 249 
3 33 303 248 
3 43 247 304 
3 52 305 250 
3 148 221 328 
3 149 330 222 
3 150 329 223 
3 82 251 298 
3 83 300 252 
3 84 299 253 
3 85 301 254 
3 95 234 312 
3 96 235 313 
3 114 230 341 
3 73 322 225 
3 130 235 327 
3 108 281 356 
3 154 356 281 
3 94 233 319 
3 155 309 260 
3 112 340 272 
3 161 319 275 
3 109 355 229 
3 133 367 229 
3 133 229 355 
3 128 238 343 
3 129 344 239 
3 130 345 240 
3 75 228 368 
3 143 291 323 
3 145 324 289 
3 146 326 290 
3 144 325 292 
3 77 229 367 
3 157 343 350 
3 158 351 344 
3 159 352 345 
3 134 243 362 
3 135 359 244 
3 136 360 245 
3 137 361 246 
3 138 310 320 
3 147 320 310 
3 114 341 259 
3 130 327 306 
3 170 272 340 
3 139 323 291 
3 141 289 324 
3 142 290 326 
3 140 292 325 
3 133 271 367 
3 163 306 327 
3 30 289 364 
3 20 290 365 
3 40 292 366 
3 15 363 291 
3 141 364 289 
3 142 365 290 
3 140 366 292 
3 139 291 363 
3 109 294 355 
3 94 348 346 
3 153 346 348 

CELL_TYPES 658
5 
5 
5 
5 
5 
5 
5 
5 
5 
5 
5 
5 
5 
5 
5 
5 
5 
5 
5 
5 
5 
5 
5 
5 
5 
5 
5 
5 
5 
5 
5 
5 
5 
5 
5 
5 
5 
5 
5 
5 
5 
5 
5 
5 
5 
5 
5 
5 
5 
5 
5 
5 
5 
5 
5 
5 
5 
5 
5 
5 
5 
5 
5 
5 
5 
5 
5 
5 
5 
5 
5 
5 
5 
5 
5 
5 
5 
5 
5 
5 
5 
5 
5 
5 
5 
5 
5 
5 
5 
5 
5 
5 
5 
5 
5 
5 
5 
5 
5 
5 
5 
5 
5 
5 
5 
5 
5 
5 
5 
5 
5 
5 
5 
5 
5 
5 
5 
5 
5 
5 
5 
5 
5 
5 
5 
5 
5 
5 
5 
5 
5 
5 
5 
5 
5 
5 
5 
5 
5 
5 
5 
5 
5 
5 
5 
5 
5 
5 
5 
5 
5 
5 
5 
5 
5 
5 
5 
5 
5 
5 
5 
5 
5 
5 
5 
5 
5 
5 
5 
5 
5 
5 
5 
5 
5 
5 
5 
5 
5 
5 
5 
5 
5 
5 
5 
5 
5 
5 
5 
5 
5 
5 
5 
5 
5 
5 
5 
5 
5 
5 
5 
5 
5 
5 
5 
5 
5 
5 
5 
5 
5 
5 
5 
5 
5 
5 
5 
5 
5 
5 
5 
5 
5 
5 
5 
5 
5 
5 
5 
5 
5 
5 
5 
5 
5 
5 
5 
5 
5 
5 
5 
5 
5 
5 
5 
5 
5 
5 
5 
5 
5 
5 
5 
5 
5 
5 
5 
5 
5 
5 
5 
5 
5 
5 
5 
5 
5 
5 
5 
5 
5 
5 
5 
5 
5 
5 
5 
5 
5 
5 
5 
5 
5 
5 
5 
5 
5 
5 
5 
5 
5 
5 
5 
5 
5 
5 
5 
5 
5 
5 
5 
5 
5 
5 
5 
5 
5 
5 
5 
5 
5 
5 
5 
5 
5 
5 
5 
5 
5 
5 
5 
5 
5 
5 
5 
5 
5 
5 
5 
5 
5 
5 
5 
5 
5 
5 
5 
5 
5 
5 
5 
5 
5 
5 
5 
5 
5 
5 
5 
5 
5 
5 
5 
5 
5 
5 
5 
5 
5 
5 
5 
5 
5 
5 
5 
5 
5 
5 
5 
5 
5 
5 
5 
5 
5 
5 
5 
5 
5 
5 
5 
5 
5 
5 
5 
5 
5 
5 
5 
5 
5 
5 
5 
5 
5 
5 
5 
5 
5 
5 
5 
5 
5 
5 
5 
5 
5 
5 
5 
5 
5 
5 
5 
5 
5 
5 
5 
5 
5 
5 
5 
5 
5 
5 
5 
5 
5 
5 
5 
5 
5 
5 
5 
5 
5 
5 
5 
5 
5 
5 
5 
5 
5 
5 
5 
5 
5 
5 
5 
5 
5 
5 
5 
5 
5 
5 
5 
5 
5 
5 
5 
5 
5 
5 
5 
5 
5 
5 
5 
5 
5 
5 
5 
5 
5 
5 
5 
5 
5 
5 
5 
5 
5 
5 
5 
5 
5 
5 
5 
5 
5 
5 
5 
5 
5 
5 
5 
5 
5 
5 
5 
5 
5 
5 
5 
5 
5 
5 
5 
5 
5 
5 
5 
5 
5 
5 
5 
5 
5 
5 
5 
5 
5 
5 
5 
5 
5 
5 
5 
5 
5 
5 
5 
5 
5 
5 
5 
5 
5 
5 
5 
5 
5 
5 
5 
5 
5 
5 
5 
5 
5 
5 
5 
5 
5 
5 
5 
5 
5 
5 
5 
5 
5 
5 
5 
5 
5 
5 
5 
5 
5 
5 
5 
5 
5 
5 
5 
5 
5 
5 
5 
5 
5 
5 
5 
5 
5 
5 
5 
5 
5 
5 
5 
5 
5 
5 
5 
5 
5 
5 
5 
5 
5 
5 
5 
5 
5 
5 
5 
5 
5 
5 
5 
5 
5 
5 
5 
5 
5 
5 
5 
5 
5 
5 
5 
5 
5 
5 
5 
5 
5 
5 
5 
5 
5 
5 
5 
5 
5 
5 
5 
5 
5 
5 
5 
5 
5 
5 
5 
5 
5 
5 
5 
5 
5 
5 
5 
5 
POINT_DATA 369
SCALARS GMDS_ID int 1
LOOKUP_TABLE default
0 1 2 3 4 5 6 7 8 9 10 11 12 13 14 15 16 17 18 19 20 21 22 23 24 25 26 27 28 29 30 31 32 33 34 35 36 37 38 39 40 41 42 43 44 45 46 47 48 49 50 51 52 53 54 55 56 57 58 59 60 61 62 63 64 65 66 67 68 69 70 71 72 73 74 75 76 77 78 79 80 81 82 83 84 85 86 87 88 89 90 91 92 93 94 95 96 97 98 99 100 101 102 103 104 105 106 107 108 109 110 111 112 113 114 115 116 117 118 119 120 121 122 123 124 125 126 127 128 129 130 131 132 133 134 135 136 137 138 139 140 141 142 143 144 145 146 147 148 149 150 151 152 153 154 155 156 157 158 159 160 161 162 163 164 165 166 167 168 169 170 171 172 173 174 175 176 177 178 179 180 181 182 183 184 185 186 187 188 189 190 191 192 193 194 195 196 197 198 199 200 201 202 203 204 205 206 207 208 209 210 211 212 213 214 215 216 217 218 219 220 221 222 223 224 225 226 227 228 229 230 231 232 233 234 235 236 237 238 239 240 241 242 243 244 245 246 247 248 249 250 251 252 253 254 255 256 257 258 259 260 261 262 263 264 265 266 267 268 269 270 271 272 273 274 275 276 277 278 279 280 281 282 283 284 285 286 287 288 289 290 291 292 293 294 295 296 297 298 299 300 301 302 303 304 305 306 307 308 309 310 311 312 313 314 315 316 317 318 319 320 321 322 323 324 325 326 327 328 329 330 331 332 333 334 335 336 337 338 339 340 341 342 343 344 345 346 347 348 349 350 351 352 353 354 355 356 357 358 359 360 361 362 363 364 365 366 367 368 
SCALARS angle float 1
LOOKUP_TABLE default
0 0 0 0 0 0 0 0 0 0 0 0 0 0.571199 1.1424 1.7136 2.28479 2.85599 3.42719 3.99839 4.56959 5.14079 5.71199 0.571199 1.1424 1.7136 2.28479 2.85599 3.42719 3.99839 4.56959 5.14079 5.71199 0.571199 1.1424 1.7136 2.28479 2.85599 3.42719 3.99839 4.56959 5.14079 5.71199 5.71199 5.14079 4.56959 3.99839 3.42719 2.85599 2.28479 1.7136 1.1424 0.571199 0 0 0 0 0 0 0 0 0 0 0 0 0 0 0 0 0 0 0 0 3.08935 3.18442 3.07845 3.15083 2.89894 3.13509 3.1093 3.09287 3.09071 5.75005 0.438463 0.451375 0.592495 1.5241 4.70891 4.66809 4.57066 3.12023 3.12247 3.10698 3.03358 3.89614 2.55036 2.54112 2.40889 3.06634 2.75595 3.56562 3.47525 3.61226 0.470298 5.80013 5.89308 5.79482 3.23477 3.07805 3.10184 2.97172 3.26642 2.99009 3.28184 3.2968 3.00341 2.97882 3.10547 4.81062 1.59981 1.58652 1.48989 2.93819 2.83206 5.66581 0.570939 0.575488 0.616079 4.36796 2.23397 2.16778 1.83842 3.14291 3.35524 6.22048 0.0299167 0.0306368 0.0353851 3.1282 2.14352 4.21079 4.27807 4.0825 1.03568 5.2449 5.24824 5.22729 3.11072 2.76949 3.54753 3.56968 3.07294 2.44241 3.78 3.09175 3.06561 3.14133 0.734417 5.21361 5.25996 3.08109 3.48222 6.02376 2.77635 2.53598 2.55055 3.08395 2.85611 2.86167 3.30467 3.16234 3.12359 2.99375 5.83861 0.43918 5.83981 5.84094 2.90949 3.1004 2.50147 3.34367 3.31088 2.70626 3.24821 3.06053 3.08115 5.16425 1.09781 1.10497 1.12529 3.0771 1.81825 4.48067 3.2205 3.22453 3.49666 2.81183 0.703335 5.52267 5.50742 3.84951 2.97665 3.09953 3.17029 0.0976255 6.17269 6.17199 6.22841 1.87889 1.87217 3.07234 3.29962 2.27033 4.05476 3.97194 3.04122 3.14404 3.22886 0.0830459 6.14559 6.14498 3.35197 3.22562 3.31386 0.952283 3.10225 3.03368 3.089 3.16915 3.11337 3.16305 3.8388 3.87873 4.40485 2.13808 2.06696 1.92142 3.07228 5.02584 1.3425 1.31729 1.29402 0.0350934 6.09306 0.166773 0.167854 0.183372 5.73619 0.52851 0.530136 0.54434 5.36161 0.881469 0.892589 0.939997 3.50579 3.46737 2.78836 2.96804 3.30015 3.13627 3.08102 3.24423 0.816681 5.4614 5.46538 5.43537 3.1835 2.79709 3.02884 3.01738 3.7139 3.09795 2.98371 2.83599 3.62887 4.75457 1.53544 3.03419 2.68694 3.03223 3.10022 3.0654 2.98829 5.4049 3.05381 2.98003 2.77428 2.95934 4.66472 4.64419 1.62336 4.6569 3.28905 3.14436 1.60351 1.60777 3.56723 5.92334 0.304204 0.300013 0.37523 0.66938 0.666845 5.59197 0.693161 2.77183 2.99487 2.78545 3.14117 3.12122 2.4801 2.15123 2.15568 3.14108 3.14558 3.07403 2.81325 3.08268 3.91556 3.11677 3.11674 3.08711 1.5687 4.70261 4.69437 4.67111 2.48007 2.11061 4.08034 4.15788 0.15385 6.1262 6.13808 6.12544 3.31921 5.9442 0.337768 5.94426 5.94469 3.0912 3.20251 5.36541 5.46878 0.794481 0.729828 4.02598 2.23048 3.6377 2.76978 0.0316011 6.11207 6.11446 3.14232 3.04366 3.19303 3.09187 3.09891 3.44444 0.0297458 0.0300417 0.0455772 6.23901 1.91031 4.42891 4.35246 4.42205 3.17505 3.29533 
VECTORS cross_X float
1 0 0 1 0 0 1 0 0 1 0 0 1 0 0 1 0 0 1 0 0 1 0 0 1 0 0 1 0 0 1 0 0 1 0 0 1 0 0 0.989821 0.142315 0 0.959493 0.281733 0 0.909632 0.415415 0 0.841254 0.540641 0 0.75575 0.654861 0 0.654861 0.75575 0 0.540641 0.841254 0 0.415415 0.909632 0 0.281733 0.959493 0 0.142315 0.989821 0 0.989821 0.142315 0 0.959493 0.281733 0 0.909632 0.415415 0 0.841254 0.540641 0 0.75575 0.654861 0 0.654861 0.75575 0 0.540641 0.841254 0 0.415415 0.909632 0 0.281733 0.959493 0 0.142315 0.989821 0 0.989821 0.142315 0 0.959493 0.281733 0 0.909632 0.415415 0 0.841254 0.540641 0 0.75575 0.654861 0 0.654861 0.75575 0 0.540641 0.841254 0 0.415415 0.909632 0 0.281733 0.959493 0 0.142315 0.989821 0 0.142315 0.989821 0 0.281733 0.959493 0 0.415415 0.909632 0 0.540641 0.841254 0 0.654861 0.75575 0 0.75575 0.654861 0 0.841254 0.540641 0 0.909632 0.415415 0 0.959493 0.281733 0 0.989821 0.142315 0 1 0 0 1 0 0 1 0 0 1 0 0 1 0 0 1 0 0 1 0 0 1 0 0 1 0 0 1 0 0 1 0 0 1 0 0 1 0 0 1 0 0 1 0 0 1 0 0 1 0 0 1 0 0 1 0 0 1 0 0 0.716281 0.697812 0 0.699496 0.714637 0 0.71818 0.695857 0 0.705471 0.708738 0 0.748674 0.662938 0 0.708255 0.705957 0 0.712792 0.701375 0 0.715668 0.698441 0 0.716043 0.698056 0 0.132889 0.991131 0 0.993998 0.109396 0 0.99364 0.112604 0 0.98905 0.147583 0 0.928284 0.371872 0 0.383486 0.923547 0 0.39289 0.919585 0 0.415172 0.909743 0 0.710872 0.703321 0 0.710479 0.703718 0 0.713199 0.700962 0 0.72594 0.687758 0 0.561967 0.82716 0 0.803533 0.595261 0 0.804905 0.593403 0 0.824079 0.566476 0 0.720283 0.69368 0 0.771891 0.635755 0 0.62832 0.777955 0 0.645733 0.763563 0 0.619207 0.785228 0 0.993096 0.117304 0 0.120471 0.992717 0 0.0973715 0.995248 0 0.121788 0.992556 0 0.690444 0.723386 0 0.718249 0.695786 0 0.714099 0.700045 0 0.736489 0.676449 0 0.6847 0.728825 0 0.733375 0.679824 0 0.681885 0.731459 0 0.679144 0.734005 0 0.731107 0.682263 0 0.735287 0.677755 0 0.713463 0.700693 0 0.359882 0.932998 0 0.92108 0.389374 0 0.922368 0.386312 0 0.93143 0.36392 0 0.742134 0.670251 0 0.759654 0.650328 0 0.153731 0.988113 0 0.989831 0.14225 0 0.989668 0.143376 0 0.988162 0.153412 0 0.460721 0.887545 0 0.848054 0.529909 0 0.856707 0.515803 0 0.896228 0.443593 0 0.706874 0.70734 0 0.668349 0.743848 0 0.0156747 0.999877 0 0.999972 0.00747912 0 0.999971 0.00765912 0 0.999961 0.00884615 0 0.709471 0.704734 0 0.85982 0.510597 0 0.49523 0.868762 0 0.480548 0.876968 0 0.522833 0.852435 0 0.966667 0.256038 0 0.256665 0.9665 0 0.25586 0.966714 0 0.260919 0.965361 0 0.712543 0.701628 0 0.769733 0.638366 0 0.631831 0.775106 0 0.62753 0.778593 0 0.719138 0.694867 0 0.819302 0.573362 0 0.585743 0.810497 0 0.715862 0.698242 0 0.720411 0.693548 0 0.707154 0.70706 0 0.983192 0.182574 0 0.264219 0.964463 0 0.253025 0.96746 0 0.717722 0.69633 0 0.644402 0.764687 0 0.0648102 0.997898 0 0.768638 0.639684 0 0.805667 0.592368 0 0.803504 0.595299 0 0.717222 0.696845 0 0.75573 0.654883 0 0.754819 0.655933 0 0.6777 0.735339 0 0.70343 0.710765 0 0.710283 0.703916 0 0.732752 0.680496 0 0.110916 0.99383 0 0.993979 0.109575 0 0.110617 0.993863 0 0.110337 0.993894 0 0.746925 0.664909 0 0.714351 0.699787 0 0.810748 0.585395 0 0.670497 0.741913 0 0.676557 0.73639 0 0.779728 0.626118 0 0.688011 0.7257 0 0.72129 0.692633 0 0.71771 0.696342 0 0.276101 0.961129 0 0.962574 0.27102 0 0.962087 0.272742 0 0.960689 0.277626 0 0.718416 0.695614 0 0.898453 0.439069 0 0.435532 0.900173 0 0.693021 0.720918 0 0.692295 0.721615 0 0.641637 0.767009 0 0.762934 0.646476 0 0.984581 0.174929 0 0.188985 0.98198 0 0.192729 0.981252 0 0.571572 0.820552 0 0.735655 0.677357 0 0.714502 0.699633 0 0.702016 0.712161 0 0.999702 0.024404 0 0.027621 0.999618 0 0.0277955 0.999614 0 0.0136939 0.999906 0 0.891693 0.45264 0 0.892453 0.45114 0 0.719242 0.69476 0 0.678626 0.734484 0 0.843203 0.537596 0 0.528733 0.848788 0 0.546192 0.83766 0 0.724626 0.689142 0 0.706674 0.707539 0 0.691513 0.722364 0 0.999784 0.02076 0 0.0343915 0.999408 0 0.0345434 0.999403 0 0.668956 0.743302 0 0.692097 0.721804 0 0.676007 0.736895 0 0.971795 0.235828 0 0.714028 0.700118 0 0.725924 0.687775 0 0.716343 0.697749 0 0.702219 0.711961 0 0.712078 0.702101 0 0.703304 0.71089 0 0.573766 0.819019 0 0.565562 0.824706 0 0.452514 0.891757 0 0.860513 0.509429 0 0.869434 0.494048 0 0.88683 0.462095 0 0.719254 0.694748 0 0.309186 0.951001 0 0.944204 0.32936 0 0.946262 0.323401 0 0.948127 0.317892 0 0.999962 0.00877325 0 0.0475142 0.998871 0 0.999131 0.0416812 0 0.99912 0.0419513 0 0.998949 0.045827 0 0.136322 0.990665 0 0.991284 0.131743 0 0.99123 0.132146 0 0.990755 0.135665 0 0.228362 0.973576 0 0.975817 0.218588 0 0.975206 0.2213 0 0.972515 0.232842 0 0.639885 0.768471 0 0.647236 0.762289 0 0.766714 0.641989 0 0.737112 0.675771 0 0.678529 0.734574 0 0.708047 0.706166 0 0.717733 0.696318 0 0.688732 0.725016 0 0.97923 0.202755 0 0.204003 0.97897 0 0.203031 0.979172 0 0.210371 0.977622 0 0.699661 0.714475 0 0.76531 0.643662 0 0.726755 0.686897 0 0.728721 0.684811 0 0.599056 0.800707 0 0.714779 0.69935 0 0.734459 0.678653 0 0.759015 0.651073 0 0.61594 0.787793 0 0.372921 0.927863 0 0.927226 0.374502 0 0.725836 0.687868 0 0.782743 0.622345 0 0.726172 0.687513 0 0.714383 0.699755 0 0.720446 0.693511 0 0.733682 0.679493 0 0.217812 0.975991 0 0.722454 0.691419 0 0.735083 0.677978 0 0.768969 0.639286 0 0.738579 0.674167 0 0.393667 0.919253 0 0.398379 0.917221 0 0.918771 0.39479 0 0.395462 0.918482 0 0.680566 0.732687 0 0.706617 0.707596 0 0.920719 0.390226 0 0.920303 0.391207 0 0.628007 0.778208 0 0.0898409 0.995956 0 0.99711 0.0759778 0 0.997189 0.0749329 0 0.995603 0.09367 0 0.98603 0.166565 0 0.986136 0.16594 0 0.171945 0.985107 0 0.985023 0.172424 0 0.76936 0.638816 0 0.732562 0.6807 0 0.767181 0.641431 0 0.707181 0.707033 0 0.710699 0.703497 0 0.813864 0.581056 0 0.858833 0.512255 0 0.858264 0.513209 0 0.707198 0.707016 0 0.706402 0.707811 0 0.718949 0.695063 0 0.762704 0.646748 0 0.717445 0.696615 0 0.557944 0.829879 0 0.711481 0.702705 0 0.711486 0.702701 0 0.716672 0.69741 0 0.92408 0.382198 0 0.384942 0.922941 0 0.386842 0.922146 0 0.392196 0.919882 0 0.813869 0.581048 0 0.863991 0.503506 0 0.523293 0.852153 0 0.506676 0.862136 0 0.99926 0.0384531 0 0.0392354 0.99923 0 0.0362691 0.999342 0 0.0394269 0.999222 0 0.675022 0.737798 0 0.0846445 0.996411 0 0.996437 0.0843418 0 0.084629 0.996413 0 0.0845218 0.996422 0 0.715959 0.698142 0 0.696257 0.717792 0 0.227435 0.973793 0 0.202199 0.979345 0 0.98034 0.197317 0 0.983401 0.181446 0 0.534825 0.844963 0 0.848517 0.529167 0 0.614199 0.789151 0 0.769687 0.638422 0 0.999969 0.0079002 0 0.0427653 0.999085 0 0.0421686 0.999111 0 0.706978 0.707236 0 0.724206 0.689584 0 0.697955 0.716142 0 0.715842 0.698263 0 0.714612 0.699521 0 0.651596 0.758566 0 0.999972 0.00743638 0 0.999972 0.00751035 0 0.999935 0.011394 0 0.0110439 0.999939 0 0.888111 0.459629 0 0.447143 0.894462 0 0.464155 0.885754 0 0.448677 0.893694 0 0.701168 0.712996 0 0.679414 0.733755 0 
VECTORS VY float