# vtk DataFile Version 3.0
Generated by GMDS VTK Writer

ASCII
DATASET UNSTRUCTURED_GRID
POINTS 728 float
15 30 0
25.5 25.5 0
30 15 0
25.5 4.5 0
15 0 0
8 3 0
5 10 0
8 17 0
15 20 0
15.9982 29.9972 0
16.992 29.9038 0
17.9747 29.728 0
18.9409 29.477 0
19.8865 29.1567 0
20.8079 28.7724 0
21.7021 28.3283 0
22.5663 27.8284 0
23.3978 27.2758 0
24.1938 26.6732 0
24.9518 26.0234 0
25.6688 25.3287 0
26.342 24.5914 0
26.9683 23.8139 0
27.5446 22.9986 0
28.0677 22.1483 0
28.5344 21.2657 0
28.9415 20.3541 0
29.2861 19.4171 0
29.5655 18.4587 0
29.7773 17.4831 0
29.9196 16.4949 0
29.991 15.4992 0
29.991 14.5008 0
29.9196 13.5051 0
29.7773 12.5169 0
29.5655 11.5413 0
29.2861 10.5829 0
28.9415 9.64588 0
28.5344 8.73432 0
28.0677 7.85175 0
27.5446 7.00138 0
26.9683 6.18612 0
26.342 5.40862 0
25.6688 4.67133 0
24.9518 3.9766 0
24.1938 3.32677 0
23.3978 2.72425 0
22.5663 2.17159 0
21.7021 1.67165 0
20.8079 1.22765 0
19.8865 0.843317 0
18.9409 0.523039 0
17.9747 0.271975 0
16.992 0.0962096 0
15.9982 0.00284506 0
14.0233 0.0239042 0
13.0575 0.172477 0
12.1148 0.430077 0
11.2039 0.784173 0
10.3315 1.22491 0
9.50369 1.7445 0
8.72601 2.33658 0
8.00429 2.99571 0
7.34459 3.7169 0
6.75329 4.49514 0
6.23707 5.32507 0
5.80267 6.20058 0
5.45658 7.11458 0
5.20461 8.05885 0
5.05141 9.02407 0
5 10 0
5.05141 10.9759 0
5.20461 11.9411 0
5.45658 12.8854 0
5.80267 13.7994 0
6.23707 14.6749 0
6.75329 15.5049 0
7.34459 16.2831 0
8.00429 17.0043 0
8.72601 17.6634 0
9.50369 18.2555 0
10.3315 18.7751 0
11.2039 19.2158 0
12.1148 19.5699 0
13.0575 19.8275 0
14.0233 19.9761 0
15 21 0
15 22 0
15 23 0
15 24 0
15 25 0
15 26 0
15 27 0
15 28 0
15 29 0
15.0856 10.0257 0
21.7003 15.1008 0
21.304 8.81548 0
21.0839 21.2272 0
16.7695 14.9947 0
10.0771 10.1983 0
17.5835 5.40565 0
12.4703 5.81074 0
12.2035 14.4527 0
24.8104 11.7852 0
24.783 18.4688 0
19.2126 24.9038 0
18.6326 18.2082 0
18.511 11.8352 0
26.443 14.8135 0
21.052 5.39877 0
9.12552 6.99121 0
14.5908 3.33946 0
24.5109 8.44691 0
24.3882 21.7495 0
18.1001 8.82881 0
9.0358 13.2064 0
13.9401 16.8233 0
22.262 24.1637 0
21.667 12.0108 0
18.1144 21.9892 0
21.5795 18.2441 0
14.5776 13.0147 0
15.0004 7.12617 0
12.5302 8.73469 0
19.1108 14.4003 0
7.55864 8.7845 0
19.3781 3.4045 0
12.1623 3.1997 0
17.6568 27.0888 0
12.0066 11.8349 0
9.85451 4.56935 0
27.3525 12.6955 0
23.4723 6.15095 0
27.0381 17.3547 0
24.0269 14.0511 0
16.0754 17.8177 0
9.8212 15.3866 0
26.3403 9.91999 0
16.8972 2.56355 0
26.3225 20.3182 0
7.40683 11.5397 0
23.629 16.4418 0
11.7043 16.936 0
19.8874 16.5113 0
22.8643 10.1979 0
21.1053 26.1047 0
19.0812 6.80949 0
23.1865 19.8783 0
16.3657 11.8427 0
17.1958 23.9837 0
17.1657 20.0418 0
20.3933 23.184 0
19.434 20.2175 0
24.1945 23.8518 0
13.9365 14.8086 0
19.4446 10.0044 0
17.9187 16.3996 0
10.6355 8.17116 0
14.2603 5.28889 0
17.4243 13.3949 0
21.9651 7.11729 0
28.0796 15.8694 0
19.6832 27.3603 0
7.27606 7.02968 0
21.2125 3.64105 0
13.6912 1.8172 0
13.3743 10.4254 0
22.5063 22.2673 0
8.30574 5.16808 0
16.2425 8.45909 0
25.3697 16.9274 0
17.4007 10.4525 0
20.0519 12.845 0
22.915 4.40423 0
10.4196 11.8473 0
15.4597 1.80973 0
25.1907 6.81762 0
25.4275 13.3425 0
16.3059 4.1735 0
26.2083 8.26671 0
10.721 6.12084 0
28.3551 14.1041 0
23.3113 12.5592 0
8.16783 14.7609 0
26.099 22.0389 0
16.5602 25.6966 0
13.4077 7.1978 0
7.38988 13.1645 0
17.1726 7.15104 0
20.1605 18.8879 0
14.5301 18.4187 0
27.599 19.242 0
12.8784 18.1197 0
27.7605 11.0569 0
22.8304 8.56945 0
14.1753 8.52404 0
19.1331 5.09604 0
24.8033 10.1466 0
15.5351 16.3616 0
11.7151 10.1188 0
10.5325 2.99944 0
22.6827 25.7873 0
19.567 8.41605 0
15.8818 5.82925 0
10.4072 13.6244 0
16.5056 22.5201 0
24.7822 20.1369 0
16.5617 28.353 0
20.9661 10.5153 0
11.7922 7.26937 0
15.9657 13.4737 0
22.0668 13.5517 0
12.9075 13.1769 0
6.55936 10.1718 0
22.0868 16.6586 0
23.2811 17.9846 0
12.7077 15.7558 0
18.5106 2.02675 0
19.6312 21.7886 0
18.8702 23.3872 0
9.07885 8.48267 0
21.3043 19.7161 0
8.55863 10.3368 0
11.553 4.54814 0
14.6752 11.4034 0
13.0671 4.49321 0
10.1503 16.9141 0
20.829 24.6249 0
17.8934 3.97256 0
24.8619 15.3697 0
9.01515 11.6321 0
20.5304 14.154 0
26.2327 18.674 0
26.3023 11.6035 0
12.2087 1.81486 0
11.2389 15.6188 0
20.0465 11.4381 0
25.6295 23.3692 0
17.8856 15.0453 0
6.5773 8.38048 0
23.1077 15.3603 0
18.0836 25.7643 0
18.1743 28.1082 0
20.0378 2.5473 0
16.0523 19.1692 0
20.541 7.2877 0
16.3548 21.1355 0
23.9677 25.0908 0
8.83784 4.09081 0
28.4678 17.0444 0
23.5825 7.26398 0
15.2177 14.5491 0
16.3722 26.8694 0
18.9955 12.9202 0
28.3183 12.4152 0
17.35 17.7473 0
23.7624 4.8465 0
13.6184 3.25244 0
22.4755 21.1519 0
20.3618 4.18543 0
27.2967 14.007 0
22.2352 6.04947 0
13.3825 11.9681 0
26.939 16.3669 0
18.9983 15.611 0
20.6961 27.4193 0
7.31227 5.97841 0
27.1158 8.77151 0
8.77222 15.7625 0
6.38144 11.9683 0
20.6992 17.5853 0
19.9816 25.9725 0
11.8383 12.8645 0
16.6352 1.40945 0
27.3178 21.0926 0
16.5477 9.68951 0
9.8764 5.52815 0
23.7279 11.4554 0
20.4787 15.481 0
16.6417 16.5981 0
21.396 22.4271 0
18.2663 19.2274 0
19.141 17.2574 0
9.65809 14.315 0
17.9745 20.9239 0
17.2386 18.7952 0
11.4965 17.8496 0
15.1341 4.41573 0
15.9323 2.74913 0
24.3885 13.0489 0
25.5866 9.15064 0
16.1109 24.648 0
20.4874 20.2152 0
24.9638 5.83412 0
24.4171 17.1241 0
14.4568 1.11752 0
25.3201 21.1362 0
22.1506 11.07 0
18.5036 7.48933 0
23.9921 22.8997 0
11.3114 11.1545 0
17.4203 12.1949 0
10.3555 7.19799 0
22.3773 3.36035 0
22.0923 26.7492 0
12.8145 16.8884 0
28.2326 18.521 0
14.5321 15.8431 0
21.9885 9.62819 0
18.1387 6.14997 0
19.9742 5.87239 0
14.9873 17.3851 0
23.639 9.24966 0
13.5222 6.09356 0
18.3861 10.5072 0
7.28528 14.1814 0
22.6308 18.8761 0
23.7787 19.0125 0
29.0103 14.9538 0
27.8434 10.1031 0
15.2349 12.1293 0
23.4954 20.91 0
9.46938 3.17094 0
16.3355 6.80891 0
15.4864 11.0135 0
10.9339 9.60876 0
11.2346 1.93346 0
26.3231 7.16124 0
17.9972 24.6425 0
16.0766 23.434 0
13.5996 18.8901 0
8.22965 8.22627 0
15.103 8.25418 0
17.7269 23.0195 0
21.7596 25.1393 0
25.4682 14.4504 0
21.2233 12.9744 0
10.5747 14.5979 0
8.10946 6.53783 0
27.4211 15.0157 0
14.0522 4.203 0
13.0224 14.1615 0
21.6753 4.46277 0
9.13711 9.6012 0
25.7051 10.6952 0
20.8715 16.6732 0
17.7601 1.31124 0
27.9815 20.2778 0
26.0973 17.8117 0
18.6741 9.48399 0
18.4552 26.5393 0
14.5684 2.32067 0
13.5449 9.24499 0
17.6004 28.7166 0
6.03229 11.0873 0
21.4204 23.497 0
25.2085 24.3578 0
23.211 23.7517 0
14.4478 14.1292 0
23.039 14.131 0
8.1342 12.1814 0
17.972 2.89389 0
19.9492 24.1954 0
5.98311 9.3655 0
25.6618 19.5671 0
28.9559 13.1515 0
24.9128 22.6895 0
16.6338 12.8353 0
20.2125 9.28769 0
21.0151 6.57413 0
19.7718 18.0905 0
17.1991 8.82955 0
8.16574 13.7368 0
10.4247 17.8356 0
7.51723 10.4722 0
11.6325 8.22404 0
9.78328 11.1704 0
14.9267 6.08057 0
21.9809 8.13846 0
12.2884 10.7772 0
16.5257 10.7954 0
25.3271 7.7846 0
12.8757 1.20472 0
22.6871 11.7977 0
16.102 20.0969 0
17.2771 15.883 0
16.7469 14.0082 0
19.2415 19.2061 0
19.3357 1.63839 0
14.2342 7.66177 0
9.00015 16.7621 0
17.3143 21.3851 0
18.1686 14.0968 0
22.8074 6.84458 0
6.31542 6.96963 0
20.2268 28.226 0
25.6538 12.3608 0
13.7838 17.7642 0
10.7421 4.06179 0
20.6146 12.1271 0
14.1828 9.91914 0
7.74021 4.4617 0
26.4537 22.9713 0
17.7534 11.2663 0
9.88632 12.7616 0
22.9994 24.8126 0
13.3605 8.18067 0
20.8834 2.41624 0
10.7271 5.04691 0
15.5846 9.33845 0
24.6024 16.2642 0
16.6201 5.15679 0
28.6391 11.4355 0
28.9909 16.4277 0
22.9674 17.0909 0
6.45391 13.0135 0
17.0579 8.0637 0
17.0881 6.2051 0
27.0134 22.0861 0
17.0822 3.48433 0
11.6864 6.3625 0
19.5168 22.7048 0
21.0881 18.8981 0
15.9577 29.0395 0
12.5679 6.74914 0
12.9199 2.50085 0
20.2306 3.39834 0
23.3223 3.64934 0
15.235 19.1902 0
12.5305 9.74699 0
25.8576 15.8194 0
11.2626 12.1277 0
20.5153 8.19727 0
24.1042 15.4788 0
15.6657 0.821607 0
24.2883 6.58259 0
14.2206 6.69138 0
22.2627 15.637 0
19.6997 13.7073 0
18.1648 4.78637 0
22.3207 23.2251 0
27.1828 7.93016 0
7.69747 15.5424 0
22.3302 12.6611 0
26.8946 10.703 0
23.0187 5.33994 0
26.68 19.4214 0
10.0924 8.94121 0
19.4738 12.1245 0
18.9382 21.1722 0
11.7488 9.20316 0
13.5624 15.9375 0
12.5401 7.77027 0
20.4871 21.9845 0
15.7134 25.5247 0
23.3916 21.9102 0
15.8846 27.7354 0
15.5807 15.2982 0
9.63401 7.74068 0
15.7981 7.44509 0
25.9028 6.15841 0
28.0557 13.2747 0
21.5401 17.3937 0
21.3243 14.0786 0
10.4789 16.0784 0
9.15067 4.97646 0
17.2167 25.0885 0
19.9896 25.1416 0
23.613 25.9721 0
19.4715 15.1228 0
19.9615 21.0107 0
26.44 13.1954 0
23.8889 10.3298 0
27.6598 16.8061 0
27.1152 18.3932 0
11.5815 5.4716 0
29.2464 14.043 0
13.7855 13.4065 0
27.1156 11.711 0
18.8015 4.1736 0
18.8815 8.82159 0
15.8629 21.7108 0
11.9674 18.5525 0
12.2539 4.07686 0
19.0567 25.7428 0
13.165 5.29007 0
23.514 13.4184 0
25.1485 17.7568 0
17.3771 26.1979 0
10.24 2.07254 0
12.3485 4.94844 0
28.4725 19.4694 0
20.1777 10.5588 0
26.3018 21.1749 0
24.8102 13.8785 0
19.1303 7.70364 0
15.5921 3.53055 0
9.06618 14.9059 0
22.7376 9.33886 0
11.4185 2.8219 0
26.4014 9.05788 0
24.7945 25.1508 0
22.7504 7.69639 0
11.9493 16.1217 0
9.87702 6.42198 0
24.1023 12.2022 0
8.32766 11.11 0
25.2301 21.9739 0
21.8242 21.6051 0
18.9362 5.90378 0
16.2311 2.13296 0
7.03392 9.49455 0
15.451 18.317 0
23.6355 8.12408 0
13.791 11.2847 0
17.3324 27.9708 0
22.3194 20.1008 0
19.9452 19.6031 0
24.4225 7.5033 0
12.0839 15.2836 0
8.48638 9.05204 0
19.0237 2.64687 0
24.3977 20.8689 0
10.8994 10.3865 0
14.3763 19.224 0
15.394 13.0151 0
11.3369 13.8216 0
20.3826 26.6823 0
15.9748 17.0331 0
8.83759 7.75093 0
5.74909 10.3635 0
19.1878 28.4398 0
12.1884 17.5851 0
21.0918 11.2958 0
12.2531 13.6543 0
24.6973 10.9391 0
13.0362 14.9315 0
22.9197 26.5795 0
24.6039 9.3168 0
21.6034 27.521 0
22.4044 17.7566 0
11.0941 7.54236 0
20.9509 9.75679 0
24.0349 20.0132 0
8.81843 6.01184 0
15.9456 14.3723 0
6.01659 7.77375 0
17.2393 4.47159 0
18.932 22.0801 0
18.1496 23.7342 0
24.6628 19.3019 0
19.34 11.078 0
13.6209 0.867164 0
14.222 12.0772 0
22.1683 8.89808 0
28.4941 10.5649 0
15.7292 26.2181 0
24.773 4.83627 0
22.2414 14.541 0
26.1635 14.0117 0
17.7117 9.5761 0
22.1792 5.13104 0
28.8719 17.8666 0
12.7683 12.3327 0
[...]
POINT_DATA 728
SCALARS GMDS_ID int 1
LOOKUP_TABLE default
0 1 2 3 4 5 6 7 8 9 10 11 12 13 14 15 16 17 18 19 20 21 22 23 24 25 26 27 28 29 30 31 32 33 34 35 36 37 38 39 40 41 42 43 44 45 46 47 48 49 50 51 52 53 54 55 56 57 58 59 60 61 62 63 64 65 66 67 68 69 70 71 72 73 74 75 76 77 78 79 80 81 82 83 84 85 86 87 88 89 90 91 92 93 94 95 96 97 98 99 100 101 102 103 104 105 106 107 108 109 110 111 112 113 114 115 116 117 118 119 120 121 122 123 124 125 126 127 128 129 130 131 132 133 134 135 136 137 138 139 140 141 142 143 144 145 146 147 148 149 150 151 152 153 154 155 156 157 158 159 160 161 162 163 164 165 166 167 168 169 170 171 172 173 174 175 176 177 178 179 180 181 182 183 184 185 186 187 188 189 190 191 192 193 194 195 196 197 198 199 200 201 202 203 204 205 206 207 208 209 210 211 212 213 214 215 216 217 218 219 220 221 222 223 224 225 226 227 228 229 230 231 232 233 234 235 236 237 238 239 240 241 242 243 244 245 246 247 248 249 250 251 252 253 254 255 256 257 258 259 260 261 262 263 264 265 266 267 268 269 270 271 272 273 274 275 276 277 278 279 280 281 282 283 284 285 286 287 288 289 290 291 292 293 294 295 296 297 298 299 300 301 302 303 304 305 306 307 308 309 310 311 312 313 314 315 316 317 318 319 320 321 322 323 324 325 326 327 328 329 330 331 332 333 334 335 336 337 338 339 340 341 342 343 344 345 346 347 348 349 350 351 352 353 354 355 356 357 358 359 360 361 362 363 364 365 366 367 368 369 370 371 372 373 374 375 376 377 378 379 380 381 382 383 384 385 386 387 388 389 390 391 392 393 394 395 396 397 398 399 400 401 402 403 404 405 406 407 408 409 410 411 412 413 414 415 416 417 418 419 420 421 422 423 424 425 426 427 428 429 430 431 432 433 434 435 436 437 438 439 440 441 442 443 444 445 446 447 448 449 450 451 452 453 454 455 456 457 458 459 460 461 462 463 464 465 466 467 468 469 470 471 472 473 474 475 476 477 478 479 480 481 482 483 484 485 486 487 488 489 490 491 492 493 494 495 496 497 498 499 500 501 502 503 504 505 506 507 508 509 510 511 512 513 514 515 516 517 518 519 520 521 522 523 524 525 526 527 528 529 530 531 532 533 534 535 536 537 538 539 540 541 542 543 544 545 546 547 548 549 550 551 552 553 554 555 556 557 558 559 560 561 562 563 564 565 566 567 568 569 570 571 572 573 574 575 576 577 578 579 580 581 582 583 584 585 586 587 588 589 590 591 592 593 594 595 596 597 598 599 600 601 602 603 604 605 606 607 608 609 610 611 612 613 614 615 616 617 618 619 620 621 622 623 624 625 626 627 628 629 630 631 632 633 634 635 636 637 638 639 640 641 642 643 644 645 646 647 648 649 650 651 652 653 654 655 656 657 658 659 660 661 662 663 664 665 666 667 668 669 670 671 672 673 674 675 676 677 678 679 680 681 682 683 684 685 686 687 688 689 690 691 692 693 694 695 696 697 698 699 700 701 702 703 704 705 706 707 708 709 710 711 712 713 714 715 716 717 718 719 720 721 722 723 724 725 726 727 
SCALARS angle float 1
LOOKUP_TABLE default
0 0 0 0 6.23995 0 0 0 0 6.09015 5.74187 5.42076 5.12158 4.83968 4.57111 4.3125 4.061 3.81418 3.56994 3.32651 3.08234 2.83615 2.58685 2.33359 2.07574 1.81293 1.54502 1.27216 0.994768 0.713527 0.429347 0.143325 6.13986 5.85384 5.56966 5.28842 5.01103 4.73817 4.47026 4.20744 3.94959 3.69634 3.44704 3.20084 2.95668 2.71324 2.46901 2.22218 1.97068 1.71208 1.44351 1.16161 0.86242 0.541318 0.193035 5.92897 5.44441 5.0082 4.60606 4.22657 3.86077 3.50153 3.14319 2.78127 2.41235 2.03404 1.6451 1.24547 0.836338 0.420081 5.32907e-15 5.8631 5.44685 5.03772 4.63808 4.24914 3.87084 3.50192 3.14 2.78166 2.42242 2.05661 1.67713 1.27498 0.838771 0.354218 0 0 0 0 0 0 0 0 0 1.19802 0.263505 2.23536 0.154492 0.632793 0.962324 1.25733 0.54688 2.01994 5.36724 1.04416 5.48052 0.219668 0.785881 6.1922 2.01222 1.89104 6.21684 3.92012 2.38363 1.31054 3.65659 1.0899 3.75596 0.0176502 6.20155 0.425789 1.22233 1.06241 1.35199 0.459138 0.676834 1.47744 4.79867 5.56661 1.79424 3.22116 5.57818 2.98852 0.737175 6.12766 0.332186 2.8479 4.73769 0.861091 1.76032 5.60698 0.402094 1.93883 0.337298 4.7625 4.54856 1.5757 1.19851 1.00039 6.04388 0.0614998 5.66501 0.0895429 3.01286 1.32935 1.16433 0.385108 1.5137 0.420195 0.716277 2.5634 0.28547 4.99214 1.53776 1.88301 5.59768 1.35862 2.64455 2.52066 1.2017 0.577154 1.0778 0.440367 2.52912 2.38635 0.203004 3.54507 5.80012 0.857534 4.14283 2.6325 5.95737 5.85616 3.60696 2.36941 5.97506 1.12925 4.41412 1.27236 0.241705 0.52741 1.31018 1.32805 5.13275 3.39306 1.20084 1.52897 4.7209 0.665277 1.42271 3.96971 3.80499 1.58982 0.985104 2.83451 6.22912 1.70691 5.7931 0.735015 1.67448 0.913688 0.0615504 1.71549 6.27303 0.38246 0.688371 1.72845 1.19754 6.18156 5.92318 1.12057 0.377716 0.168907 4.08591 1.22874 5.4065 2.46346 4.84328 1.21891 0.125553 5.18162 0.332495 1.1771 5.27181 4.94455 2.29905 0.64053 2.70572 0.511118 0.772271 0.203731 5.61819 5.35479 1.57762 0.13172 1.96327 0.00445563 3.33686 3.06549 0.640713 3.27133 0.967235 5.92806 0.585141 5.51472 0.270167 2.83752 5.60595 1.35218 1.72718 5.92612 2.51494 1.47709 0.420957 0.397813 4.65387 2.02973 4.44178 3.1488 5.36421 0.334352 5.01564 2.07916 0.653862 1.94888 1.16533 2.80027 5.37825 0.341116 0.455819 5.85056 0.134145 0.295795 3.10008 0.00886666 0.162589 1.85071 0.489087 0.54027 5.81 4.38316 6.12385 0.179208 3.32758 0.5982 5.88498 2.13086 5.86736 1.46074 2.79152 1.68371 0.849232 1.92218 2.16699 4.18606 1.54595 1.08998 1.00987 3.24904 1.39129 1.7513 0.608272 4.10624 0.698838 1.04413 4.10626 0.713737 1.07158 6.21462 4.87123 1.12406 1.86908 3.52448 1.15397 1.14532 1.30338 4.5006 3.78129 5.82353 6.19844 0.891842 1.06731 1.16476 6.11033 4.20207 6.11324 0.19945 2.67125 1.93661 6.23929 6.11232 1.6965 2.09909 0.682257 4.97066 0.344113 0.950926 1.54852 0.881993 1.25871 5.413 6.03294 1.28006 5.50553 5.95482 4.66988 2.96423 3.21276 1.20831 6.27464 4.81796 1.15089 5.42872 0.337411 1.50494 5.75214 2.63619 0.873503 1.52418 2.10452 0.263534 1.23731 3.91307 2.15888 6.22055 1.48036 0.87125 0.867459 2.71793 1.50976 1.0761 3.83521 5.32603 5.81937 0.0402562 0.482663 0.742268 0.164097 1.37859 1.12158 2.82686 6.26933 0.56803 2.88514 1.46659 4.82775 5.50384 0.994629 3.77284 0.378748 1.25899 2.58405 2.56788 0.94409 3.17445 3.5288 1.24442 1.76392 3.34202 1.18466 0.375223 1.05473 5.25424 0.496171 0.489669 4.68526 1.25964 1.22232 2.2989 0.99497 2.30622 5.99323 0.35411 5.97349 1.36097 5.2156 1.65213 2.58484 0.139108 1.37973 0.236176 2.14032 1.90826 0.185099 0.255948 3.30924 0.942327 0.287128 0.438272 1.32491 3.45394 4.21573 3.56248 6.15352 5.01179 2.69841 1.42121 1.18568 0.61685 6.26717 1.38482 1.36029 1.37123 6.13769 6.14647 2.44198 5.99359 0.7966 1.56611 1.14439 3.49712 5.7376 0.395403 0.230977 2.50146 2.82648 5.90545 5.1514 3.53325 0.396979 0.0286286 5.71251 4.79251 0.570659 1.06975 3.48181 5.97354 1.427 5.30772 1.41036 1.3996 6.27668 1.55212 4.74024 5.35712 6.03282 6.04478 0.831648 5.73276 3.98448 4.68258 1.30137 0.915144 2.08203 5.99793 1.56748 0.505719 3.21878 3.82569 4.46462 4.44936 3.23691 3.0534 1.97673 2.31446 5.59139 5.91287 2.4207 0.56539 1.52747 0.58804 0.296676 0.310488 3.5582 1.35817 5.58568 0.8051 0.17545 3.57209 2.01568 0.72288 1.35832 2.01443 1.36621 0.347741 1.05181 2.39105 4.80175 0.476452 1.43123 6.15055 5.04793 1.6716 0.327739 1.99001 5.06161 1.66371 3.84974 4.31989 4.3846 0.516361 1.73135 1.44344 1.54547 2.30869 0.833731 0.927802 1.12094 6.15626 5.95849 1.34059 0.847692 5.63267 1.30767 3.05278 5.03375 6.13909 3.13861 0.157348 5.95352 1.19373 2.36407 0.82551 1.67331 5.94833 5.48004 2.57382 4.96882 6.21114 6.15616 0.593729 2.36291 0.571373 5.72546 1.1168 2.27259 4.37252 3.50258 1.08275 5.3259 1.21087 2.54941 6.26009 3.45583 3.23939 0.83619 4.5061 0.329671 0.827291 0.747353 4.1923 5.73604 0.296534 0.42707 1.24869 0.980978 0.355043 0.677288 0.316847 1.81812 3.94417 0.221462 6.21932 2.0587 4.66795 2.73779 5.28078 0.33835 1.68699 1.79877 2.74111 3.20107 2.19994 1.14931 0.744671 0.621474 3.06535 1.59183 0.427472 0.332541 5.25109 0.821409 5.16733 1.32529 0.30777 3.03554 4.76769 1.73552 6.18777 4.8485 0.593546 0.457247 1.51144 0.505032 1.02771 0.355411 5.12799 4.38398 1.94129 1.44741 1.5138 5.23454 1.17889 2.34325 0.849028 6.13716 0.345571 1.27364 1.46335 0.255641 0.994694 0.193261 0.982039 1.0592 2.71377 4.12259 2.22045 2.55993 1.39232 6.15067 0.0378137 1.8725 1.40526 0.367394 1.57883 1.90296 2.91462 4.5929 4.70287 5.36535 4.45067 3.22827 0.313354 0.688064 5.70719 0.110608 6.08648 5.76031 0.543218 1.3425 0.669575 3.80674 0.152108 0.363666 6.25979 3.15513 5.77171 0.165802 0.775575 1.74042 0.74114 1.43449 4.47941 5.59106 0.0214758 3.40266 1.57043 6.12037 2.58143 3.255 4.82601 2.80751 0.313227 5.14968 1.4419 0.109988 3.8572 3.35929 0.314403 0.00708583 3.49005 1.21398 4.46459 5.46645 1.39637 0.538529 5.60057 1.13875 0.0635613 1.03049 0.0715697 0.101785 2.20744 0.379417 4.07225 1.19242 1.37948 
VECTORS cross_X float
1 0 0 1 0 0 1 0 0 1 0 0 0.0108096 0.999942 0 1 0 0 1 0 0 1 0 0 1 0 0 0.04824 0.998836 0 0.134917 0.990857 0 0.213939 0.976847 0 0.286338 0.958129 0 0.353095 0.935587 0 0.41507 0.90979 0 0.472981 0.881073 0 0.527407 0.849613 0 0.578796 0.815472 0 0.627479 0.778634 0 0.673675 0.739028 0 0.717503 0.696555 0 0.758989 0.651103 0 0.798069 0.602566 0 0.834596 0.550863 0 0.868347 0.495957 0 0.899037 0.437874 0 0.926327 0.376721 0 0.94985 0.312705 0 0.969235 0.246136 0 0.984132 0.177437 0 0.994245 0.107131 0 0.999358 0.0358236 0 0.0358236 0.999358 0 0.107131 0.994245 0 0.177437 0.984132 0 0.246136 0.969235 0 0.312705 0.94985 0 0.376721 0.926327 0 0.437874 0.899037 0 0.495957 0.868347 0 0.550863 0.834596 0 0.602566 0.798069 0 0.651103 0.758989 0 0.696555 0.717503 0 0.739028 0.673675 0 0.778634 0.627479 0 0.815472 0.578796 0 0.849613 0.527407 0 0.881073 0.472981 0 0.90979 0.41507 0 0.935587 0.353095 0 0.958129 0.286338 0 0.976847 0.213939 0 0.990857 0.134917 0 0.998836 0.04824 0 0.0884389 0.996082 0 0.208159 0.978095 0 0.313375 0.949629 0 0.407105 0.913381 0 0.491798 0.870709 0 0.569259 0.822158 0 0.640704 0.767788 0 0.706825 0.707389 0 0.76785 0.640629 0 0.823589 0.567187 0 0.873471 0.486877 0 0.916612 0.399779 0 0.951916 0.30636 0 0.978221 0.207564 0 0.99449 0.104827 0 1 1.33227e-15 0 0.104827 0.99449 0 0.207564 0.978221 0 0.30636 0.951916 0 0.399779 0.916612 0 0.486877 0.873471 0 0.567187 0.823589 0 0.640629 0.76785 0 0.707389 0.706825 0 0.767788 0.640704 0 0.822158 0.569259 0 0.870709 0.491798 0 0.913381 0.407105 0 0.949629 0.313375 0 0.978095 0.208159 0 0.996082 0.0884389 0 1 0 0 1 0 0 1 0 0 1 0 0 1 0 0 1 0 0 1 0 0 1 0 0 1 0 0 0.955482 0.295048 0 0.997831 0.0658286 0 0.84787 0.530204 0 0.999254 0.0386133 0 0.987513 0.157539 0 0.9712 0.238267 0 0.951003 0.309183 0 0.990668 0.136294 0 0.875181 0.483795 0 0.226989 0.973897 0 0.966122 0.258086 0 0.199322 0.979934 0 0.998492 0.0548893 0 0.980762 0.195209 0 0.0227451 0.999741 0 0.876113 0.482105 0 0.890315 0.455345 0 0.0165864 0.999862 0 0.556997 0.830514 0 0.827639 0.561261 0 0.946806 0.321804 0 0.610467 0.792042 0 0.963108 0.269116 0 0.590604 0.806962 0 0.99999 0.00441254 0 0.020408 0.999792 0 0.99434 0.106246 0 0.953672 0.300848 0 0.964935 0.26249 0 0.943421 0.331598 0 0.993419 0.114533 0 0.985718 0.168402 0 0.932559 0.361018 0 0.362668 0.931918 0 0.178186 0.983997 0 0.901073 0.433668 0 0.692903 0.721031 0 0.17534 0.984508 0 0.733642 0.679537 0 0.983066 0.183252 0 0.0388709 0.999244 0 0.996554 0.0829512 0 0.757073 0.65333 0 0.376833 0.926281 0 0.976918 0.213614 0 0.904717 0.426013 0 0.168248 0.985745 0 0.994952 0.100354 0 0.884812 0.465949 0 0.996447 0.0842246 0 0.371081 0.928601 0 0.420191 0.907436 0 0.92341 0.383815 0 0.955446 0.295165 0 0.968888 0.247499 0 0.0597911 0.998211 0 0.999882 0.0153743 0 0.153928 0.988082 0 0.999749 0.0223839 0 0.729494 0.683988 0 0.945282 0.326254 0 0.957934 0.28699 0 0.995369 0.0961285 0 0.929248 0.369457 0 0.994487 0.104856 0 0.98401 0.178114 0 0.801587 0.597878 0 0.997454 0.071307 0 0.317186 0.948363 0 0.927009 0.37504 0 0.891227 0.453558 0 0.170538 0.985351 0 0.942869 0.333163 0 0.789294 0.614015 0 0.80793 0.589279 0 0.955211 0.295926 0 0.989608 0.143788 0 0.963917 0.266202 0 0.993946 0.10987 0 0.806682 0.590985 0 0.827258 0.561823 0 0.998712 0.0507291 0 0.632309 0.774717 0 0.120473 0.992717 0 0.977108 0.212745 0 0.509918 0.860223 0 0.791141 0.611634 0 0.0813633 0.996685 0 0.106554 0.994307 0 0.620247 0.784407 0 0.82963 0.558314 0 0.076956 0.997034 0 0.960414 0.278576 0 0.450446 0.892803 0 0.949835 0.312752 0 0.998175 0.0603894 0 0.99132 0.131471 0 0.946835 0.321719 0 0.945388 0.325946 0 0.283659 0.958925 0 0.661285 0.750134 0 0.955275 0.29572 0 0.92783 0.373003 0 0.380718 0.924691 0 0.986201 0.165553 0 0.937411 0.348226 0 0.546659 0.837356 0 0.580669 0.81414 0 0.922049 0.387073 0 0.969827 0.243794 0 0.759257 0.650791 0 0.0135152 0.999909 0 0.910326 0.413893 0 0.122216 0.992504 0 0.983165 0.182721 0 0.91365 0.406501 0 0.974025 0.226441 0 0.999882 0.015387 0 0.909436 0.415845 0 0.00253837 0.999997 0 0.995432 0.0954693 0 0.985229 0.171245 0 0.908083 0.418789 0 0.955518 0.294934 0 0.0254046 0.999677 0 0.0898794 0.995953 0 0.961016 0.276493 0 0.995545 0.0942888 0 0.999109 0.0422142 0 0.522106 0.852881 0 0.953189 0.302376 0 0.21742 0.976078 0 0.816274 0.577665 0 0.352252 0.935905 0 0.953928 0.300034 0 0.999507 0.031383 0 0.271923 0.962319 0 0.996547 0.0830281 0 0.957012 0.290047 0 0.250158 0.968205 0 0.328448 0.944522 0 0.839321 0.543636 0 0.987206 0.159449 0 0.779813 0.626013 0 0.991847 0.127432 0 0.98142 0.191871 0 0.998703 0.0509108 0 0.165484 0.986213 0 0.230021 0.973186 0 0.923225 0.384259 0 0.999458 0.0329241 0 0.881948 0.471347 0 0.999999 0.00111391 0 0.671759 0.74077 0 0.720432 0.693526 0 0.987199 0.159494 0 0.683804 0.729666 0 0.970906 0.239459 0 0.0886646 0.996062 0 0.989319 0.145764 0 0.190937 0.981602 0 0.99772 0.0674905 0 0.758765 0.651364 0 0.168501 0.985702 0 0.943405 0.331643 0 0.908216 0.418501 0 0.0891487 0.996018 0 0.808773 0.588121 0 0.93259 0.360938 0 0.994467 0.105045 0 0.995059 0.0992894 0 0.396158 0.918182 0 0.873995 0.485934 0 0.444263 0.895896 0 0.705832 0.708379 0 0.227728 0.973725 0 0.996509 0.0834907 0 0.311609 0.950211 0 0.867924 0.496698 0 0.986669 0.162738 0 0.883637 0.468172 0 0.957862 0.287229 0 0.764799 0.644269 0 0.22431 0.974518 0 0.996366 0.0851757 0 0.993514 0.113708 0 0.107945 0.994157 0 0.999438 0.0335299 0 0.997267 0.0738815 0 0.714406 0.699731 0 0.999998 0.00221666 0 0.999174 0.040636 0 0.894861 0.446345 0 0.992534 0.121967 0 0.990892 0.134657 0 0.118019 0.993011 0 0.457345 0.889289 0 0.0398226 0.999207 0 0.998997 0.0447869 0 0.673477 0.739208 0 0.988838 0.148993 0 0.0993868 0.995049 0 0.861431 0.507874 0 0.10377 0.994601 0 0.934058 0.357122 0 0.766206 0.642596 0 0.91271 0.408608 0 0.977547 0.210717 0 0.886743 0.462262 0 0.856809 0.515633 0 0.50059 0.865684 0 0.926239 0.376938 0 0.963102 0.269135 0 0.968299 0.249794 0 0.68786 0.725843 0 0.940117 0.340851 0 0.905676 0.423971 0 0.98846 0.151483 0 0.517765 0.855523 0 0.984777 0.173822 0 0.966124 0.258079 0 0.517761 0.855525 0 0.984123 0.177489 0 0.96433 0.264703 0 0.0171412 0.999853 0 0.345704 0.938344 0 0.960774 0.277332 0 0.892801 0.450451 0 0.636287 0.771452 0 0.958674 0.284508 0 0.959287 0.282433 0 0.947381 0.320109 0 0.431041 0.902332 0 0.585482 0.810685 0 0.114662 0.993405 0 0.0211846 0.999776 0 0.975247 0.221118 0 0.964612 0.263673 0 0.957903 0.287092 0 0.0432006 0.999066 0 0.497121 0.867681 0 0.0424741 0.999098 0 0.998757 0.0498419 0 0.785178 0.619271 0 0.88507 0.465459 0 0.0109732 0.99994 0 0.042703 0.999088 0 0.9114 0.411522 0 0.865438 0.501016 0 0.985489 0.169738 0 0.322275 0.946646 0 0.996302 0.0859222 0 0.971875 0.235499 0 0.925997 0.377532 0 0.975789 0.218716 0 0.950896 0.309509 0 0.215835 0.97643 0 0.0625215 0.998044 0 0.949231 0.31458 0 0.193193 0.981161 0 0.0819992 0.996632 0 0.39248 0.919761 0 0.737756 0.675068 0 0.694414 0.719576 0 0.954721 0.297504 0 0.0021353 0.999998 0 0.358168 0.933657 0 0.958893 0.283769 0 0.211995 0.977271 0 0.996444 0.0842529 0 0.930054 0.367422 0 0.132372 0.9912 0 0.790576 0.612365 0 0.976251 0.216644 0 0.928276 0.371892 0 0.864756 0.502191 0 0.99783 0.0658359 0 0.952539 0.304418 0 0.558461 0.829531 0 0.857853 0.513895 0 0.0156573 0.999877 0 0.932295 0.361698 0 0.976372 0.216094 0 0.976577 0.215169 0 0.777898 0.62839 0 0.929611 0.368543 0 0.964031 0.265791 0 0.5745 0.818504 0 0.237012 0.971507 0 0.115695 0.993285 0 0.999949 0.0100639 0 0.992729 0.120373 0 0.982832 0.184504 0 0.999159 0.0410127 0 0.941195 0.337865 0 0.960946 0.276735 0 0.760498 0.64934 0 0.00346338 0.999994 0 0.989934 0.141531 0 0.750957 0.660351 0 0.933535 0.358487 0 0.355883 0.934531 0 0.193607 0.981079 0 0.969244 0.246103 0 0.587193 0.809447 0 0.995521 0.0945457 0 0.950875 0.309575 0 0.79849 0.602008 0 0.800918 0.598774 0 0.972276 0.233837 0 0.701275 0.712891 0 0.635455 0.772138 0 0.951996 0.306112 0 0.904334 0.426826 0 0.670804 0.741635 0 0.956463 0.291854 0 0.995603 0.0936682 0 0.965437 0.260637 0 0.254408 0.967097 0 0.992317 0.123725 0 0.992516 0.122112 0 0.388941 0.921263 0 0.950824 0.309731 0 0.953673 0.300847 0 0.839342 0.543604 0 0.969223 0.246185 0 0.838346 0.545139 0 0.0724241 0.997374 0 0.996084 0.0884119 0 0.0773466 0.997004 0 0.942674 0.333716 0 0.263739 0.964594 0 0.915908 0.401388 0 0.798371 0.602166 0 0.999395 0.03477 0 0.941099 0.338132 0 0.998257 0.0590097 0 0.860228 0.509909 0 0.888347 0.459173 0 0.99893 0.0462583 0 0.997954 0.0639435 0 0.676858 0.736114 0 0.972379 0.233409 0 0.997425 0.0717204 0 0.994003 0.109349 0 0.945644 0.325205 0 0.649792 0.760112 0 0.494155 0.869374 0 0.628931 0.777461 0 0.0324104 0.999475 0 0.312524 0.94991 0 0.780955 0.624587 0 0.937541 0.347874 0 0.956389 0.292097 0 0.988133 0.153602 0 0.00400469 0.999992 0 0.940667 0.339332 0 0.94273 0.333556 0 0.941815 0.336132 0 0.0363664 0.999339 0 0.0341722 0.999416 0 0.819364 0.573274 0 0.0723348 0.99738 0 0.980235 0.197836 0 0.924327 0.381601 0 0.959352 0.282212 0 0.64155 0.767081 0 0.135973 0.990712 0 0.995118 0.0986898 0 0.998333 0.0577121 0 0.81075 0.585393 0 0.760561 0.649267 0 0.0942946 0.995544 0 0.279186 0.960237 0 0.634595 0.772845 0 0.995079 0.0990819 0 0.999974 0.00715709 0 0.142187 0.98984 0 0.364102 0.931359 0 0.989841 0.142181 0 0.964451 0.264261 0 0.644481 0.764621 0 0.0773347 0.997005 0 0.937037 0.349231 0 0.241457 0.970412 0 0.938482 0.345329 0 0.939407 0.342804 0 0.00162595 0.999999 0 0.925656 0.378366 0 0.376242 0.926522 0 0.229454 0.973319 0 0.0625503 0.998042 0 0.0595665 0.998224 0 0.978464 0.206417 0 0.137173 0.990547 0 0.543562 0.839369 0 0.389559 0.921002 0 0.947542 0.319633 0 0.973942 0.226795 0 0.867567 0.49732 0 0.0712536 0.997458 0 0.924197 0.381916 0 0.992018 0.126093 0 0.69333 0.72062 0 0.576447 0.817135 0 0.43914 0.898418 0 0.442565 0.896736 0 0.690057 0.723755 0 0.722524 0.691346 0 0.880357 0.474312 0 0.837221 0.546864 0 0.172089 0.985081 0 0.092447 0.995718 0 0.822402 0.568907 0 0.990027 0.140877 0 0.92797 0.372655 0 0.989213 0.146481 0 0.997251 0.074101 0 0.996989 0.077544 0 0.629762 0.776788 0 0.942907 0.333055 0 0.173495 0.984835 0 0.979812 0.199919 0 0.999038 0.0438485 0 0.627061 0.77897 0 0.875696 0.482862 0 0.983715 0.179738 0 0.942895 0.333091 0 0.875847 0.482589 0 0.942235 0.334951 0 0.996224 0.0868258 0 0.965627 0.259933 0 0.826597 0.562795 0 0.361951 0.932197 0 0.992914 0.118831 0 0.936667 0.350221 0 0.0331517 0.99945 0 0.303928 0.952695 0 0.913943 0.405843 0 0.996645 0.0818431 0 0.878778 0.477231 0 0.300668 0.953729 0 0.914742 0.404039 0 0.571524 0.820585 0 0.471353 0.881945 0 0.457023 0.889455 0 0.991679 0.128732 0 0.907779 0.419449 0 0.935594 0.353079 0 0.926284 0.376826 0 0.838009 0.545657 0 0.978356 0.206927 0 0.97322 0.229876 0 0.96099 0.276581 0 0.0317269 0.999497 0 0.0810856 0.996707 0 0.944362 0.328909 0 0.977628 0.21034 0 0.161912 0.986805 0 0.947036 0.321126 0 0.722631 0.691234 0 0.307305 0.951611 0 0.0360167 0.999351 0 0.707633 0.70658 0 0.999226 0.0393268 0 0.082323 0.996606 0 0.955798 0.294023 0 0.830374 0.557206 0 0.97878 0.204916 0 0.913769 0.406233 0 0.0836155 0.996498 0 0.19944 0.97991 0 0.800028 0.599963 0 0.322711 0.946498 0 0.0180104 0.999838 0 0.0317522 0.999496 0 0.989004 0.147888 0 0.830536 0.556964 