# vtk DataFile Version 3.0
Generated by GMDS VTK Writer

ASCII
DATASET UNSTRUCTURED_GRID
POINTS 246 float
0 0 0
10 0 0
10 5 0
0 5 0
2.5 2.5 0
1.5 2.5 0
3.5 2.5 0
5 0 0
10 2.5 0
0 4.5 0
0 4 0
0 3.5 0
0 3 0
0 2.5 0
0 2 0
0 1.5 0
0 1 0
0 0.5 0
0.5 5 0
1 5 0
1.5 5 0
2 5 0
2.5 5 0
3 5 0
3.5 5 0
4 5 0
4.5 5 0
5 5 0
5.5 5 0
6 5 0
6.5 5 0
7 5 0
7.5 5 0
8 5 0
8.5 5 0
9 5 0
9.5 5 0
1.59903 2.06612 0
1.87651 1.71817 0
2.27748 1.52507 0
2.72252 1.52507 0
3.12349 1.71817 0
3.40097 2.06612 0
3.40097 2.93388 0
3.12349 3.28183 0
2.72252 3.47493 0
2.27748 3.47493 0
1.87651 3.28183 0
1.59903 2.93388 0
9.53438 2.48914 0
9.06979 2.45635 0
8.60734 2.40107 0
8.14832 2.32224 0
7.69433 2.21833 0
7.2475 2.08709 0
6.81078 1.92541 0
6.38859 1.729 0
5.98793 1.49192 0
5.62053 1.20626 0
5.30714 0.862706 0
5.08376 0.455693 0
0.5 0 0
1 0 0
1.5 0 0
2 0 0
2.5 0 0
3 0 0
3.5 0 0
4 0 0
4.5 0 0
10 3 0
10 3.5 0
10 4 0
10 4.5 0
5.23412 2.93673 0
6.6486 3.50705 0
8.12922 3.71222 0
4.63744 2.01214 0
4.16883 3.79884 0
4.02949 1.0977 0
0.999092 1.01486 0
0.999092 3.98514 0
5.72013 4.0141 0
6.07737 2.61934 0
4.33465 2.89777 0
9.02965 3.29111 0
3.30787 4.14281 0
7.49363 3.1141 0
7.26948 4.19464 0
3.28904 0.837942 0
5.47101 2.09717 0
1.80962 0.800141 0
1.83005 4.19346 0
0.868217 1.85268 0
0.868217 3.14732 0
4.95645 4.23804 0
8.85451 4.15924 0
6.81858 2.6973 0
6.50413 4.28753 0
2.60451 4.26388 0
4.66502 1.2983 0
2.52506 0.847211 0
4.01826 1.73071 0
8.2665 3.0057 0
0.839182 2.5 0
5.84869 3.31517 0
7.98967 4.3227 0
4.84501 2.62157 0
4.59087 3.44409 0
4.45824 0.663542 0
3.70353 3.47522 0
4.05101 2.43023 0
3.83187 4.37788 0
9.3754 3.94334 0
0.645373 0.647095 0
0.645373 4.3529 0
1.31309 1.48154 0
1.31309 3.51846 0
3.74327 0.525582 0
5.23577 1.64154 0
3.48146 1.31038 0
5.3337 3.70716 0
1.3748 0.571544 0
1.37654 4.42791 0
0.572071 1.37477 0
0.572071 3.62523 0
5.99015 2.09236 0
5.54044 2.68297 0
4.48877 4.42951 0
5.4536 4.40222 0
7.24959 3.62364 0
8.74396 2.86584 0
9.26705 4.52069 0
9.45659 3.02766 0
6.49167 2.30214 0
7.30242 2.60739 0
7.8738 2.72011 0
6.00226 4.46552 0
6.96411 4.46754 0
6.15342 3.6923 0
6.43888 3.00146 0
2.2269 0.500268 0
2.21156 4.53903 0
3.85319 2.80886 0
2.83486 0.491817 0
1.76158 1.26712 0
1.76649 3.73425 0
8.61211 3.67324 0
2.96581 4.4801 0
0.456791 2.18756 0
0.456791 2.81244 0
6.87317 3.9578 0
4.05749 3.25628 0
7.78078 3.47639 0
3.73162 3.93387 0
3.04516 3.76525 0
1.16438 2.17024 0
1.17185 2.82158 0
7.00002 3.14607 0
8.44389 4.46962 0
9.52325 3.49501 0
7.6567 4.54271 0
2.99953 1.26332 0
2.23819 4.0089 0
4.43337 1.69002 0
4.83438 0.845582 0
4.99368 2.16914 0
2.17123 1.10485 0
5.63944 1.7242 0
8.36383 4.06711 0
1.78227 0.374391 0
1.78363 4.63208 0
4.76777 3.03943 0
4.56761 3.94734 0
0.376798 1.77344 0
0.376798 3.22656 0
3.46219 4.55654 0
3.28869 0.389758 0
3.6127 1.72557 0
7.76946 3.97055 0
4.49054 2.3966 0
8.57117 3.25898 0
4.83594 4.63297 0
7.90657 3.13043 0
5.12239 1.22092 0
1.45165 1.00417 0
1.45552 3.99503 0
3.79148 2.09853 0
9.64526 4.26719 0
6.91615 2.31146 0
0.932996 3.54554 0
0.932996 1.45446 0
4.2236 0.381676 0
8.84637 4.60908 0
4.4035 1.02032 0
3.6873 0.954992 0
4.8239 1.67058 0
0.959644 0.403065 0
0.959644 4.59694 0
0.399208 0.953522 0
0.399208 4.04648 0
4.69789 0.360586 0
2.63706 3.8559 0
4.23702 2.05971 0
6.36515 4.63898 0
3.8365 1.36793 0
5.30501 4.06005 0
5.82388 2.97467 0
2.56863 1.21396 0
5.49433 3.33354 0
6.1307 4.08381 0
5.27671 2.4927 0
2.61094 4.63725 0
5.73832 2.37521 0
6.18269 3.29813 0
9.0437 3.76274 0
9.15585 2.81468 0
8.33003 2.64291 0
0.382319 0.382272 0
0.382319 4.61773 0
2.85407 0.934343 0
4.13222 4.64027 0
3.69386 3.11292 0
9.6554 4.6554 0
2.91208 4.10159 0
3.38234 3.7198 0
5.05851 3.37002 0
4.11944 0.757033 0
6.45663 2.65506 0
5.68485 4.69558 0
6.49962 3.88293 0
7.23977 4.7164 0
4.17529 4.19054 0
5.70835 3.63265 0
9.71692 2.79038 0
3.78526 4.71494 0
8.10894 4.65961 0
9.70301 3.80284 0
8.17006 3.32233 0
1.16885 2.49795 0
4.96869 3.79445 0
6.66668 4.67881 0
5.1972 4.68875 0
1.36425 1.85775 0
1.36574 3.14061 0
4.23102 1.3675 0

CELLS 416 1664
3 56 57 126 
3 93 104 156 
3 94 157 104 
3 65 141 144 
3 70 133 160 
3 46 146 163 
3 80 114 199 
3 81 200 115 
3 57 168 126 
3 80 197 114 
3 81 115 198 
3 38 39 145 
3 46 47 146 
3 97 158 135 
3 93 149 104 
3 94 104 150 
3 87 135 158 
3 130 179 153 
3 56 126 134 
3 70 160 71 
3 88 179 130 
3 90 119 166 
3 84 143 152 
3 39 167 145 
3 143 222 152 
3 44 110 222 
3 124 199 15 
3 200 125 11 
3 80 199 124 
3 81 125 200 
3 123 198 20 
3 122 63 197 
3 199 16 15 
3 10 200 11 
3 80 122 197 
3 81 198 123 
3 80 116 185 
3 81 186 117 
3 84 107 180 
3 13 150 149 
3 96 132 113 
3 101 141 167 
3 84 152 108 
3 91 167 141 
3 74 207 127 
3 20 198 19 
3 63 62 197 
3 6 143 111 
3 74 211 107 
3 119 196 166 
3 74 209 207 
3 46 163 202 
3 101 144 141 
3 140 207 214 
3 67 118 68 
3 83 207 140 
3 78 108 152 
3 116 145 185 
3 117 186 146 
3 84 111 143 
3 84 108 172 
3 84 172 107 
3 84 180 111 
3 43 44 222 
3 23 176 148 
3 55 56 134 
3 86 112 154 
3 6 111 187 
3 99 163 142 
3 92 142 163 
3 74 107 172 
3 44 225 110 
3 104 149 150 
3 45 46 202 
3 38 116 243 
3 47 244 117 
3 78 173 108 
3 82 129 137 
3 38 145 116 
3 47 117 146 
3 83 134 126 
3 78 152 110 
3 32 33 161 
3 86 176 112 
3 33 236 161 
3 78 110 154 
3 58 119 168 
3 61 218 197 
3 18 198 219 
3 23 24 176 
3 50 51 131 
3 238 147 181 
3 90 126 168 
3 95 173 128 
3 115 219 198 
3 114 197 218 
3 17 199 218 
3 9 219 200 
3 76 147 238 
3 74 127 211 
3 47 48 244 
3 37 38 243 
3 96 113 215 
3 41 120 162 
3 89 118 177 
3 76 179 169 
3 161 88 231 
3 231 88 138 
3 53 135 136 
3 94 117 244 
3 93 243 116 
3 114 218 199 
3 115 200 219 
3 89 195 118 
3 58 184 119 
3 35 36 132 
3 41 178 120 
3 67 177 118 
3 85 216 131 
3 65 144 66 
3 88 161 179 
3 106 169 179 
3 51 217 131 
3 85 133 216 
3 106 179 161 
3 40 162 208 
3 97 140 158 
3 90 168 119 
3 87 136 135 
3 94 190 117 
3 93 116 191 
3 75 158 140 
3 77 180 166 
3 52 53 136 
3 162 220 208 
3 107 166 180 
3 68 118 192 
3 18 19 198 
3 61 197 62 
3 89 162 120 
3 77 166 196 
3 128 173 232 
3 88 151 138 
3 95 242 129 
3 53 54 135 
3 98 138 151 
3 103 131 217 
3 75 151 130 
3 87 130 153 
3 9 200 10 
3 16 199 17 
3 88 130 151 
3 80 191 116 
3 81 117 190 
3 92 163 146 
3 26 182 128 
3 69 192 201 
3 93 124 174 
3 94 175 125 
3 91 170 122 
3 92 123 171 
3 87 158 130 
3 89 120 195 
3 75 130 158 
3 64 141 65 
3 21 22 142 
3 13 149 14 
3 12 150 13 
3 91 122 185 
3 92 186 123 
3 80 185 122 
3 81 123 186 
3 95 182 242 
3 93 191 124 
3 94 125 190 
3 5 37 156 
3 5 157 48 
3 80 124 191 
3 81 190 125 
3 109 201 192 
3 60 201 165 
3 57 58 168 
3 82 233 121 
3 129 229 137 
3 15 174 124 
3 11 125 175 
3 6 43 143 
3 90 213 126 
3 20 171 123 
3 63 122 170 
3 82 121 206 
3 105 214 207 
3 97 135 189 
3 85 131 181 
3 54 189 135 
3 83 126 213 
3 90 211 213 
3 85 160 133 
3 83 213 127 
3 49 216 133 
3 109 165 201 
3 127 213 211 
3 95 128 182 
3 86 148 176 
3 100 194 245 
3 100 245 164 
3 26 128 221 
3 85 215 160 
3 40 41 162 
3 44 155 225 
3 110 152 222 
3 83 127 207 
3 91 145 167 
3 23 148 212 
3 113 160 215 
3 100 196 184 
3 119 184 196 
3 35 132 193 
3 99 202 163 
3 6 187 42 
3 49 133 234 
3 105 207 209 
3 44 45 155 
3 29 204 137 
3 52 136 217 
3 82 206 129 
3 103 181 131 
3 22 23 212 
3 41 42 178 
3 95 129 206 
3 103 217 136 
3 106 161 236 
3 26 27 182 
3 91 141 170 
3 98 241 138 
3 112 232 154 
3 50 131 216 
3 58 59 184 
3 78 154 232 
3 96 193 132 
3 85 181 147 
3 59 60 165 
3 92 171 142 
3 93 156 243 
3 94 244 157 
3 68 192 69 
3 113 132 188 
3 83 228 134 
3 70 234 133 
3 76 169 147 
3 120 205 195 
3 64 170 141 
3 55 134 189 
3 29 30 204 
3 66 144 177 
3 34 35 193 
3 96 147 169 
3 78 232 173 
3 76 153 179 
3 105 233 139 
3 79 195 205 
3 21 142 171 
3 97 189 134 
3 36 223 132 
3 34 193 159 
3 75 214 139 
3 74 172 226 
3 82 139 233 
3 49 50 216 
3 89 177 144 
3 66 177 67 
3 87 183 136 
3 76 238 153 
3 103 136 183 
3 93 174 149 
3 94 150 175 
3 22 212 142 
3 75 140 214 
3 101 220 144 
3 89 144 220 
3 106 159 169 
3 96 169 159 
3 82 137 210 
3 5 156 239 
3 98 210 137 
3 33 34 236 
3 20 21 171 
3 63 170 64 
3 14 149 174 
3 12 175 150 
3 98 137 204 
3 25 26 221 
3 99 142 212 
3 97 134 228 
3 96 215 147 
3 5 239 157 
3 14 174 15 
3 11 175 12 
3 34 159 236 
3 108 226 172 
3 100 165 194 
3 29 137 229 
3 86 154 225 
3 118 195 227 
3 153 238 183 
3 105 139 214 
3 98 204 241 
3 86 225 155 
3 7 69 201 
3 75 139 230 
3 91 185 145 
3 92 146 186 
3 99 212 148 
3 109 194 165 
3 31 231 138 
3 241 31 138 
3 87 153 183 
3 111 203 187 
3 82 210 139 
3 72 188 73 
3 102 187 203 
3 0 218 61 
3 0 17 218 
3 3 219 9 
3 3 18 219 
3 59 165 184 
3 100 184 165 
3 2 223 36 
3 2 73 223 
3 102 203 164 
3 97 228 140 
3 77 164 203 
3 79 227 195 
3 28 229 242 
3 7 201 60 
3 83 140 228 
3 42 187 178 
3 129 242 229 
3 90 166 211 
3 54 55 189 
3 101 208 220 
3 102 178 187 
3 95 206 240 
3 86 155 224 
3 86 224 148 
3 99 148 224 
3 8 234 70 
3 43 222 143 
3 96 159 193 
3 85 147 215 
3 75 230 151 
3 77 196 164 
3 45 202 155 
3 100 164 196 
3 28 29 229 
3 121 240 206 
3 27 28 242 
3 71 237 72 
3 8 49 234 
3 72 237 188 
3 102 164 245 
3 98 151 230 
3 39 40 208 
3 110 225 154 
3 37 243 156 
3 48 157 244 
3 111 180 203 
3 51 52 217 
3 77 203 180 
3 30 31 241 
3 31 32 231 
3 24 25 235 
3 113 188 237 
3 104 157 239 
3 71 160 237 
3 104 239 156 
3 155 202 224 
3 106 236 159 
3 39 208 167 
3 74 226 209 
3 121 209 226 
3 101 167 208 
3 108 173 240 
3 32 161 231 
3 107 211 166 
3 102 205 178 
3 120 178 205 
3 89 220 162 
3 112 221 232 
3 128 232 221 
3 113 237 160 
3 95 240 173 
3 103 238 181 
3 139 210 230 
3 79 245 194 
3 121 233 209 
3 118 227 192 
3 102 245 205 
3 98 230 210 
3 79 194 227 
3 132 223 188 
3 109 227 194 
3 24 235 176 
3 112 176 235 
3 108 240 226 
3 109 192 227 
3 73 188 223 
3 27 242 182 
3 103 183 238 
3 99 224 202 
3 105 209 233 
3 30 241 204 
3 112 235 221 
3 79 205 245 
3 25 221 235 
3 121 226 240 

CELL_TYPES 416
5 
5 
5 
5 
5 
5 
5 
5 
5 
5 
5 
5 
5 
5 
5 
5 
5 
5 
5 
5 
5 
5 
5 
5 
5 
5 
5 
5 
5 
5 
5 
5 
5 
5 
5 
5 
5 
5 
5 
5 
5 
5 
5 
5 
5 
5 
5 
5 
5 
5 
5 
5 
5 
5 
5 
5 
5 
5 
5 
5 
5 
5 
5 
5 
5 
5 
5 
5 
5 
5 
5 
5 
5 
5 
5 
5 
5 
5 
5 
5 
5 
5 
5 
5 
5 
5 
5 
5 
5 
5 
5 
5 
5 
5 
5 
5 
5 
5 
5 
5 
5 
5 
5 
5 
5 
5 
5 
5 
5 
5 
5 
5 
5 
5 
5 
5 
5 
5 
5 
5 
5 
5 
5 
5 
5 
5 
5 
5 
5 
5 
5 
5 
5 
5 
5 
5 
5 
5 
5 
5 
5 
5 
5 
5 
5 
5 
5 
5 
5 
5 
5 
5 
5 
5 
5 
5 
5 
5 
5 
5 
5 
5 
5 
5 
5 
5 
5 
5 
5 
5 
5 
5 
5 
5 
5 
5 
5 
5 
5 
5 
5 
5 
5 
5 
5 
5 
5 
5 
5 
5 
5 
5 
5 
5 
5 
5 
5 
5 
5 
5 
5 
5 
5 
5 
5 
5 
5 
5 
5 
5 
5 
5 
5 
5 
5 
5 
5 
5 
5 
5 
5 
5 
5 
5 
5 
5 
5 
5 
5 
5 
5 
5 
5 
5 
5 
5 
5 
5 
5 
5 
5 
5 
5 
5 
5 
5 
5 
5 
5 
5 
5 
5 
5 
5 
5 
5 
5 
5 
5 
5 
5 
5 
5 
5 
5 
5 
5 
5 
5 
5 
5 
5 
5 
5 
5 
5 
5 
5 
5 
5 
5 
5 
5 
5 
5 
5 
5 
5 
5 
5 
5 
5 
5 
5 
5 
5 
5 
5 
5 
5 
5 
5 
5 
5 
5 
5 
5 
5 
5 
5 
5 
5 
5 
5 
5 
5 
5 
5 
5 
5 
5 
5 
5 
5 
5 
5 
5 
5 
5 
5 
5 
5 
5 
5 
5 
5 
5 
5 
5 
5 
5 
5 
5 
5 
5 
5 
5 
5 
5 
5 
5 
5 
5 
5 
5 
5 
5 
5 
5 
5 
5 
5 
5 
5 
5 
5 
5 
5 
5 
5 
5 
5 
5 
5 
5 
5 
5 
5 
5 
5 
5 
5 
5 
5 
5 
5 
5 
5 
5 
5 
5 
5 
5 
5 
5 
5 
5 
5 
5 
5 
5 
5 
5 
5 
5 
5 
5 
5 
5 
5 
5 
5 
5 
5 
5 
5 
POINT_DATA 246
SCALARS GMDS_ID int 1
LOOKUP_TABLE default
0 1 2 3 4 5 6 7 8 9 10 11 12 13 14 15 16 17 18 19 20 21 22 23 24 25 26 27 28 29 30 31 32 33 34 35 36 37 38 39 40 41 42 43 44 45 46 47 48 49 50 51 52 53 54 55 56 57 58 59 60 61 62 63 64 65 66 67 68 69 70 71 72 73 74 75 76 77 78 79 80 81 82 83 84 85 86 87 88 89 90 91 92 93 94 95 96 97 98 99 100 101 102 103 104 105 106 107 108 109 110 111 112 113 114 115 116 117 118 119 120 121 122 123 124 125 126 127 128 129 130 131 132 133 134 135 136 137 138 139 140 141 142 143 144 145 146 147 148 149 150 151 152 153 154 155 156 157 158 159 160 161 162 163 164 165 166 167 168 169 170 171 172 173 174 175 176 177 178 179 180 181 182 183 184 185 186 187 188 189 190 191 192 193 194 195 196 197 198 199 200 201 202 203 204 205 206 207 208 209 210 211 212 213 214 215 216 217 218 219 220 221 222 223 224 225 226 227 228 229 230 231 232 233 234 235 236 237 238 239 240 241 242 243 244 245 
SCALARS angle float 1
LOOKUP_TABLE default
0 0 0 0 0 6.28319 6.28319 0 0 0 0 0 0 0 0 0 0 0 0 0 0 0 0 0 0 0 0 0 0 0 0 0 0 0 0 0 0 1.7952 3.59039 5.38559 0.897598 2.69279 4.48799 1.7952 3.59039 5.38559 0.897598 2.69279 4.48799 0.187544 0.378865 0.578099 0.790169 1.0214 1.28047 1.58001 1.93951 2.39038 2.98432 3.80028 4.91575 0 0 0 0 0 0 0 0 0 0 0 0 0 0.955877 0.591058 0.365263 3.18068 0.255911 5.74881 6.27868 6.25288 0.245599 1.38127 0.781687 0.30797 6.10264 0.704023 0.242536 0.0595471 2.215 6.02973 0.120988 0.223977 6.03634 0.139633 0.170151 1.1588 0.20709 6.17427 4.15505 6.05771 4.77863 0.556377 6.27429 0.687209 0.190661 1.14146 0.462797 5.66671 0.950492 6.0353 0.0075797 0.135569 6.2806 6.27449 0.353795 5.81656 6.1961 2.89898 0.423969 0.354352 6.22388 0.0203623 0.0398951 6.22967 1.9036 1.36902 0.0676227 0.104066 0.491947 0.434135 0.0775844 0.265232 1.45771 1.06335 0.714016 0.110362 0.140533 0.449283 0.979633 6.15121 0.0150273 1.25216 6.25273 4.51177 1.91214 0.308704 6.20159 0.0352064 6.23828 0.342178 0.945708 0.492146 0.0196552 5.69057 0.430934 5.81023 0.804928 0.116228 0.162169 0.126814 0.867367 0.198665 4.36857 4.28759 2.22302 5.63384 2.4831 0.23395 6.22751 0.0186704 0.709003 0.203423 0.0336034 6.24342 6.23483 6.27506 4.6174 0.312318 0.589792 0.414203 0.0567148 0.588283 3.6971 6.1004 0.0802231 4.63891 0.0562257 1.35782 6.13752 0.112833 6.1363 0.080063 5.32842 6.14039 3.31259 6.27003 0.000822687 0.00732808 6.26882 5.46582 5.79198 4.90697 0.0993632 5.34271 0.201452 1.01928 5.77609 0.616627 0.251019 1.6322 6.25269 1.75275 0.730958 0.2218 0.334041 0.640359 6.28212 6.27979 0.0728372 0.0250945 1.61148 0.0269642 6.01132 5.65291 0.520177 5.96909 1.24703 0.0399235 0.371723 0.0746198 0.0929496 0.436702 0.148723 6.27913 0.101071 0.0787729 0.479429 6.2755 0.286162 0.0908367 0.051181 1.30903 4.95973 5.10043 
VECTORS cross_X float
1 0 0 1 0 0 1 0 0 1 0 0 1 0 0 7.08828e-13 1 0 7.30366e-13 1 0 1 0 0 1 0 0 1 0 0 1 0 0 1 0 0 1 0 0 1 0 0 1 0 0 1 0 0 1 0 0 1 0 0 1 0 0 1 0 0 1 0 0 1 0 0 1 0 0 1 0 0 1 0 0 1 0 0 1 0 0 1 0 0 1 0 0 1 0 0 1 0 0 1 0 0 1 0 0 1 0 0 1 0 0 1 0 0 1 0 0 0.900969 0.433884 0 0.62349 0.781831 0 0.222521 0.974928 0 0.974928 0.222521 0 0.781831 0.62349 0 0.433884 0.900969 0 0.900969 0.433884 0 0.62349 0.781831 0 0.222521 0.974928 0 0.974928 0.222521 0 0.781831 0.62349 0 0.433884 0.900969 0 0.998901 0.0468687 0 0.995518 0.0945747 0 0.989574 0.144022 0 0.980552 0.19626 0 0.967575 0.252584 0 0.949199 0.314677 0 0.922995 0.384811 0 0.884732 0.466101 0 0.826691 0.562656 0 0.734355 0.678765 0 0.581625 0.813457 0 0.335239 0.942133 0 1 0 0 1 0 0 1 0 0 1 0 0 1 0 0 1 0 0 1 0 0 1 0 0 1 0 0 1 0 0 1 0 0 1 0 0 1 0 0 0.971582 0.236701 0 0.989103 0.147227 0 0.995834 0.0911888 0 0.700163 0.713983 0 0.997954 0.063934 0 0.133196 0.99109 0 0.00112599 0.999999 0 0.00757732 0.999971 0 0.998116 0.0613612 0 0.940968 0.338496 0 0.980966 0.19418 0 0.997038 0.0769164 0 0.0451201 0.998982 0 0.984551 0.175098 0 0.998162 0.0605967 0 0.999889 0.0148862 0 0.850559 0.52588 0 0.0633213 0.997993 0 0.999543 0.0302423 0 0.998433 0.0559649 0 0.0616729 0.998096 0 0.999391 0.0349011 0 0.999095 0.042525 0 0.95833 0.285664 0 0.99866 0.0517494 0 0.0272261 0.999629 0 0.507287 0.861777 0 0.0563402 0.998412 0 0.367333 0.93009 0 0.990342 0.138646 0 0.0022226 0.999998 0 0.985278 0.170958 0 0.998864 0.0476471 0 0.959559 0.281507 0 0.993314 0.115441 0 0.153509 0.988147 0 0.9719 0.235393 0 0.0619313 0.99808 0 0.999998 0.00189492 0 0.999426 0.0338859 0 0.000645269 1 0 0.00217386 0.999998 0 0.996091 0.0883333 0 0.116391 0.993203 0 0.0217703 0.999763 0 0.748668 0.662945 0 0.994388 0.105794 0 0.996079 0.0884722 0 0.0148248 0.99989 0 0.999987 0.00509056 0 0.99995 0.00997361 0 0.0133785 0.999911 0 0.888881 0.458138 0 0.942 0.335613 0 0.999857 0.0169049 0 0.999662 0.0260136 0 0.992447 0.122677 0 0.994116 0.108321 0 0.999812 0.0193949 0 0.997802 0.0662593 0 0.934328 0.356414 0 0.964873 0.262718 0 0.98411 0.177557 0 0.999619 0.0275869 0 0.999383 0.0351259 0 0.993699 0.112085 0 0.97016 0.242467 0 0.0329886 0.999456 0 0.999993 0.00375682 0 0.951402 0.307953 0 0.00761418 0.999971 0 0.428519 0.903533 0 0.8879 0.460036 0 0.997023 0.0770995 0 0.0203977 0.999792 0 0.999961 0.00880148 0 0.011226 0.999937 0 0.996343 0.0854401 0 0.972181 0.234231 0 0.992441 0.122726 0 0.999988 0.00491377 0 0.147613 0.989045 0 0.994202 0.107525 0 0.117964 0.993018 0 0.979821 0.199877 0 0.999578 0.0290528 0 0.999178 0.0405312 0 0.999497 0.0316983 0 0.976582 0.215146 0 0.998767 0.0496458 0 0.460585 0.887616 0 0.478459 0.87811 0 0.849503 0.527584 0 0.161624 0.986852 0 0.813428 0.581666 0 0.99829 0.0584541 0 0.0139181 0.999903 0 0.999989 0.00466759 0 0.984332 0.176324 0 0.998707 0.0508339 0 0.999965 0.00840076 0 0.00994145 0.999951 0 0.0120888 0.999927 0 0.00203133 0.999998 0 0.404514 0.914532 0 0.996953 0.0780002 0 0.989149 0.146914 0 0.994643 0.103366 0 0.999899 0.0141782 0 0.989205 0.146541 0 0.602414 0.798184 0 0.0456792 0.998956 0 0.999799 0.0200544 0 0.399589 0.916695 0 0.999901 0.014056 0 0.942937 0.332972 0 0.0364076 0.999337 0 0.999602 0.0282045 0 0.0367126 0.999326 0 0.9998 0.0200144 0 0.236431 0.971648 0 0.0356901 0.999363 0 0.676242 0.73668 0 0.00328968 0.999995 0 1 0.000205672 0 0.999998 0.00183202 0 0.00359108 0.999994 0 0.202923 0.979195 0 0.122493 0.992469 0 0.337306 0.941395 0 0.999691 0.0248382 0 0.232958 0.972487 0 0.998732 0.0503417 0 0.967709 0.252071 0 0.126434 0.991975 0 0.988141 0.153547 0 0.998032 0.0627137 0 0.917896 0.39682 0 0.00762471 0.999971 0 0.905523 0.424298 0 0.98335 0.181724 0 0.998463 0.0554215 0 0.996515 0.0834132 0 0.987213 0.159407 0 0.000267182 1 0 0.000849229 1 0 0.999834 0.0182083 0 0.99998 0.00627359 0 0.91994 0.392059 0 0.999977 0.00674099 0 0.0679146 0.997691 0 0.156917 0.987612 0 0.991556 0.129678 0 0.0784426 0.996919 0 0.951796 0.306732 0 0.99995 0.0099807 0 0.995685 0.0927971 0 0.999826 0.0186539 0 0.99973 0.0232353 0 0.994046 0.108959 0 0.999309 0.0371721 0 0.00101441 0.999999 0 0.999681 0.0252652 0 0.999806 0.019692 0 0.992826 0.11957 0 0.00192063 0.999998 0 0.997442 0.0714794 0 0.999742 0.0227072 0 0.999918 0.0127949 0 0.946928 0.321447 0 0.324859 0.945762 0 0.2914 0.956601 0 
VECTORS VY float
6.12323e-17 1 0 6.12323e-17 1 0 6.12323e-17 1 0 6.12323e-17 1 0 6.12323e-17 1 0 -1 7.08889e-13 0 -1 7.30205e-13 0 6.12323e-17 1 0 6.12323e-17 1 0 6.12323e-17 1 0 6.12323e-17 1 0 6.12323e-17 1 0 6.12323e-17 1 0 6.12323e-17 1 0 6.12323e-17 1 0 6.12323e-17 1 0 6.12323e-17 1 0 6.12323e-17 1 0 6.12323e-17 1 0 6.12323e-17 1 0 6.12323e-17 1 0 6.12323e-17 1 0 6.12323e-17 1 0 6.12323e-17 1 0 6.12323e-17 1 0 6.12323e-17 1 0 6.12323e-17 1 0 6.12323e-17 1 0 6.12323e-17 1 0 6.12323e-17 1 0 6.12323e-17 1 0 6.12323e-17 1 0 6.12323e-17 1 0 6.12323e-17 1 0 6.12323e-17 1 0 6.12323e-17 1 0 6.12323e-17 1 0 -0.433884 0.900969 0 -0.781831 0.62349 0 -0.974928 0.222521 0 -0.222521 0.974928 0 -0.62349 0.781831 0 -0.900969 0.433884 0 -0.433884 0.900969 0 -0.781831 0.62349 0 -0.974928 0.222521 0 -0.222521 0.974928 0 -0.62349 0.781831 0 -0.900969 0.433884 0 -0.0468687 0.998901 0 -0.0945747 0.995518 0 -0.144022 0.989574 0 -0.19626 0.980552 0 -0.252584 0.967575 0 -0.314677 0.949199 0 -0.384811 0.922995 0 -0.466101 0.884732 0 -0.562656 0.826691 0 -0.678765 0.734355 0 -0.813457 0.581625 0 -0.942133 0.335239 0 6.12323e-17 1 0 6.12323e-17 1 0 6.12323e-17 1 0 6.12323e-17 1 0 6.12323e-17 1 0 6.12323e-17 1 0 6.12323e-17 1 0 6.12323e-17 1 0 6.12323e-17 1 0 6.12323e-17 1 0 6.12323e-17 1 0 6.12323e-17 1 0 6.12323e-17 1 0 -0.236701 0.971582 0 -0.147227 0.989103 0 -0.0911888 0.995834 0 -0.713983 0.700163 0 -0.063934 0.997954 0 -0.99109 0.133196 0 -0.999999 0.00112599 0 -0.999971 0.00757732 0 -0.0613612 0.998116 0 -0.338496 0.940968 0 -0.19418 0.980966 0 -0.0769164 0.997038 0 -0.998982 0.0451201 0 -0.175098 0.984551 0 -0.0605967 0.998162 0 -0.0148862 0.999889 0 -0.52588 0.850559 0 -0.997993 0.0633213 0 -0.0302423 0.999543 0 -0.0559649 0.998433 0 -0.998096 0.0616729 0 -0.0349011 0.999391 0 -0.042525 0.999095 0 -0.285664 0.95833 0 -0.0517494 0.99866 0 -0.999629 0.0272261 0 -0.861777 0.507287 0 -0.998412 0.0563402 0 -0.93009 0.367333 0 -0.138646 0.990342 0 -0.999998 0.0022226 0 -0.170958 0.985278 0 -0.0476471 0.998864 0 -0.281507 0.959559 0 -0.115441 0.993314 0 -0.988147 0.153509 0 -0.235393 0.9719 0 -0.99808 0.0619313 0 -0.00189492 0.999998 0 -0.0338859 0.999426 0 -1 0.000645269 0 -0.999998 0.00217386 0 -0.0883333 0.996091 0 -0.993203 0.116391 0 -0.999763 0.0217703 0 -0.662945 0.748668 0 -0.105794 0.994388 0 -0.0884722 0.996079 0 -0.99989 0.0148248 0 -0.00509056 0.999987 0 -0.00997361 0.99995 0 -0.999911 0.0133785 0 -0.458138 0.888881 0 -0.335613 0.942 0 -0.0169049 0.999857 0 -0.0260136 0.999662 0 -0.122677 0.992447 0 -0.108321 0.994116 0 -0.0193949 0.999812 0 -0.0662593 0.997802 0 -0.356414 0.934328 0 -0.262718 0.964873 0 -0.177557 0.98411 0 -0.0275869 0.999619 0 -0.0351259 0.999383 0 -0.112085 0.993699 0 -0.242467 0.97016 0 -0.999456 0.0329886 0 -0.00375682 0.999993 0 -0.307953 0.951402 0 -0.999971 0.00761418 0 -0.903533 0.428519 0 -0.460036 0.8879 0 -0.0770995 0.997023 0 -0.999792 0.0203977 0 -0.00880148 0.999961 0 -0.999937 0.011226 0 -0.0854401 0.996343 0 -0.234231 0.972181 0 -0.122726 0.992441 0 -0.00491377 0.999988 0 -0.989045 0.147613 0 -0.107525 0.994202 0 -0.993018 0.117964 0 -0.199877 0.979821 0 -0.0290528 0.999578 0 -0.0405312 0.999178 0 -0.0316983 0.999497 0 -0.215146 0.976582 0 -0.0496458 0.998767 0 -0.887616 0.460585 0 -0.87811 0.478459 0 -0.527584 0.849503 0 -0.986852 0.161624 0 -0.581666 0.813428 0 -0.0584541 0.99829 0 -0.999903 0.0139181 0 -0.00466759 0.999989 0 -0.176324 0.984332 0 -0.0508339 0.998707 0 -0.00840076 0.999965 0 -0.999951 0.00994145 0 -0.999927 0.0120888 0 -0.999998 0.00203133 0 -0.914532 0.404514 0 -0.0780002 0.996953 0 -0.146914 0.989149 0 -0.103366 0.994643 0 -0.0141782 0.999899 0 -0.146541 0.989205 0 -0.798184 0.602414 0 -0.998956 0.0456792 0 -0.0200544 0.999799 0 -0.916695 0.399589 0 -0.014056 0.999901 0 -0.332972 0.942937 0 -0.999337 0.0364076 0 -0.0282045 0.999602 0 -0.999326 0.0367126 0 -0.0200144 0.9998 0 -0.971648 0.236431 0 -0.999363 0.0356901 0 -0.73668 0.676242 0 -0.999995 0.00328968 0 -0.000205672 1 0 -0.00183202 0.999998 0 -0.999994 0.00359108 0 -0.979195 0.202923 0 -0.992469 0.122493 0 -0.941395 0.337306 0 -0.0248382 0.999691 0 -0.972487 0.232958 0 -0.0503417 0.998732 0 -0.252071 0.967709 0 -0.991975 0.126434 0 -0.153547 0.988141 0 -0.0627137 0.998032 0 -0.39682 0.917896 0 -0.999971 0.00762471 0 -0.424298 0.905523 0 -0.181724 0.98335 0 -0.0554215 0.998463 0 -0.0834132 0.996515 0 -0.159407 0.987213 0 -1 0.000267182 0 -1 0.000849229 0 -0.0182083 0.999834 0 -0.00627359 0.99998 0 -0.392059 0.91994 0 -0.00674099 0.999977 0 -0.997691 0.0679146 0 -0.987612 0.156917 0 -0.129678 0.991556 0 -0.996919 0.0784426 0 -0.306732 0.951796 0 -0.0099807 0.99995 0 -0.0927971 0.995685 0 -0.0186539 0.999826 0 -0.0232353 0.99973 0 -0.108959 0.994046 0 -0.0371721 0.999309 0 -0.999999 0.00101441 0 -0.0252652 0.999681 0 -0.019692 0.999806 0 -0.11957 0.992826 0 -0.999998 0.00192063 0 -0.0714794 0.997442 0 -0.0227072 0.999742 0 -0.0127949 0.999918 0 -0.321447 0.946928 0 -0.945762 0.324859 0 -0.956601 0.2914 0 
VECTORS VXM float
-1 1.22465e-16 0 -1 1.22465e-16 0 -1 1.22465e-16 0 -1 1.22465e-16 0 -1 1.22465e-16 0 -7.0895e-13 -1 0 -7.30266e-13 -1 0 -1 1.22465e-16 0 -1 1.22465e-16 0 -1 1.22465e-16 0 -1 1.22465e-16 0 -1 1.22465e-16 0 -1 1.22465e-16 0 -1 1.22465e-16 0 -1 1.22465e-16 0 -1 1.22465e-16 0 -1 1.22465e-16 0 -1 1.22465e-16 0 -1 1.22465e-16 0 -1 1.22465e-16 0 -1 1.22465e-16 0 -1 1.22465e-16 0 -1 1.22465e-16 0 -1 1.22465e-16 0 -1 1.22465e-16 0 -1 1.22465e-16 0 -1 1.22465e-16 0 -1 1.22465e-16 0 -1 1.22465e-16 0 -1 1.22465e-16 0 -1 1.22465e-16 0 -1 1.22465e-16 0 -1 1.22465e-16 0 -1 1.22465e-16 0 -1 1.22465e-16 0 -1 1.22465e-16 0 -1 1.22465e-16 0 -0.900969 -0.433884 0 -0.62349 -0.781831 0 -0.222521 -0.974928 0 -0.974928 -0.222521 0 -0.781831 -0.62349 0 -0.433884 -0.900969 0 -0.900969 -0.433884 0 -0.62349 -0.781831 0 -0.222521 -0.974928 0 -0.974928 -0.222521 0 -0.781831 -0.62349 0 -0.433884 -0.900969 0 -0.998901 -0.0468687 0 -0.995518 -0.0945747 0 -0.989574 -0.144022 0 -0.980552 -0.19626 0 -0.967575 -0.252584 0 -0.949199 -0.314677 0 -0.922995 -0.384811 0 -0.884732 -0.466101 0 -0.826691 -0.562656 0 -0.734355 -0.678765 0 -0.581625 -0.813457 0 -0.335239 -0.942133 0 -1 1.22465e-16 0 -1 1.22465e-16 0 -1 1.22465e-16 0 -1 1.22465e-16 0 -1 1.22465e-16 0 -1 1.22465e-16 0 -1 1.22465e-16 0 -1 1.22465e-16 0 -1 1.22465e-16 0 -1 1.22465e-16 0 -1 1.22465e-16 0 -1 1.22465e-16 0 -1 1.22465e-16 0 -0.971582 -0.236701 0 -0.989103 -0.147227 0 -0.995834 -0.0911888 0 -0.700163 -0.713983 0 -0.997954 -0.063934 0 -0.133196 -0.99109 0 -0.00112599 -0.999999 0 -0.00757732 -0.999971 0 -0.998116 -0.0613612 0 -0.940968 -0.338496 0 -0.980966 -0.19418 0 -0.997038 -0.0769164 0 -0.0451201 -0.998982 0 -0.984551 -0.175098 0 -0.998162 -0.0605967 0 -0.999889 -0.0148862 0 -0.850559 -0.52588 0 -0.0633213 -0.997993 0 -0.999543 -0.0302423 0 -0.998433 -0.0559649 0 -0.0616729 -0.998096 0 -0.999391 -0.0349011 0 -0.999095 -0.042525 0 -0.95833 -0.285664 0 -0.99866 -0.0517494 0 -0.0272261 -0.999629 0 -0.507287 -0.861777 0 -0.0563402 -0.998412 0 -0.367333 -0.93009 0 -0.990342 -0.138646 0 -0.0022226 -0.999998 0 -0.985278 -0.170958 0 -0.998864 -0.0476471 0 -0.959559 -0.281507 0 -0.993314 -0.115441 0 -0.153509 -0.988147 0 -0.9719 -0.235393 0 -0.0619313 -0.99808 0 -0.999998 -0.00189492 0 -0.999426 -0.0338859 0 -0.000645269 -1 0 -0.00217386 -0.999998 0 -0.996091 -0.0883333 0 -0.116391 -0.993203 0 -0.0217703 -0.999763 0 -0.748668 -0.662945 0 -0.994388 -0.105794 0 -0.996079 -0.0884722 0 -0.0148248 -0.99989 0 -0.999987 -0.00509056 0 -0.99995 -0.00997361 0 -0.0133785 -0.999911 0 -0.888881 -0.458138 0 -0.942 -0.335613 0 -0.999857 -0.0169049 0 -0.999662 -0.0260136 0 -0.992447 -0.122677 0 -0.994116 -0.108321 0 -0.999812 -0.0193949 0 -0.997802 -0.0662593 0 -0.934328 -0.356414 0 -0.964873 -0.262718 0 -0.98411 -0.177557 0 -0.999619 -0.0275869 0 -0.999383 -0.0351259 0 -0.993699 -0.112085 0 -0.97016 -0.242467 0 -0.0329886 -0.999456 0 -0.999993 -0.00375682 0 -0.951402 -0.307953 0 -0.00761418 -0.999971 0 -0.428519 -0.903533 0 -0.8879 -0.460036 0 -0.997023 -0.0770995 0 -0.0203977 -0.999792 0 -0.999961 -0.00880148 0 -0.011226 -0.999937 0 -0.996343 -0.0854401 0 -0.972181 -0.234231 0 -0.992441 -0.122726 0 -0.999988 -0.00491377 0 -0.147613 -0.989045 0 -0.994202 -0.107525 0 -0.117964 -0.993018 0 -0.979821 -0.199877 0 -0.999578 -0.0290528 0 -0.999178 -0.0405312 0 -0.999497 -0.0316983 0 -0.976582 -0.215146 0 -0.998767 -0.0496458 0 -0.460585 -0.887616 0 -0.478459 -0.87811 0 -0.849503 -0.527584 0 -0.161624 -0.986852 0 -0.813428 -0.581666 0 -0.99829 -0.0584541 0 -0.0139181 -0.999903 0 -0.999989 -0.00466759 0 -0.984332 -0.176324 0 -0.998707 -0.0508339 0 -0.999965 -0.00840076 0 -0.00994145 -0.999951 0 -0.0120888 -0.999927 0 -0.00203133 -0.999998 0 -0.404514 -0.914532 0 -0.996953 -0.0780002 0 -0.989149 -0.146914 0 -0.994643 -0.103366 0 -0.999899 -0.0141782 0 -0.989205 -0.146541 0 -0.602414 -0.798184 0 -0.0456792 -0.998956 0 -0.999799 -0.0200544 0 -0.399589 -0.916695 0 -0.999901 -0.014056 0 -0.942937 -0.332972 0 -0.0364076 -0.999337 0 -0.999602 -0.0282045 0 -0.0367126 -0.999326 0 -0.9998 -0.0200144 0 -0.236431 -0.971648 0 -0.0356901 -0.999363 0 -0.676242 -0.73668 0 -0.00328968 -0.999995 0 -1 -0.000205672 0 -0.999998 -0.00183202 0 -0.00359108 -0.999994 0 -0.202923 -0.979195 0 -0.122493 -0.992469 0 -0.337306 -0.941395 0 -0.999691 -0.0248382 0 -0.232958 -0.972487 0 -0.998732 -0.0503417 0 -0.967709 -0.252071 0 -0.126434 -0.991975 0 -0.988141 -0.153547 0 -0.998032 -0.0627137 0 -0.917896 -0.39682 0 -0.00762471 -0.999971 0 -0.905523 -0.424298 0 -0.98335 -0.181724 0 -0.998463 -0.0554215 0 -0.996515 -0.0834132 0 -0.987213 -0.159407 0 -0.000267182 -1 0 -0.000849229 -1 0 -0.999834 -0.0182083 0 -0.99998 -0.00627359 0 -0.91994 -0.392059 0 -0.999977 -0.00674099 0 -0.0679146 -0.997691 0 -0.156917 -0.987612 0 -0.991556 -0.129678 0 -0.0784426 -0.996919 0 -0.951796 -0.306732 0 -0.99995 -0.0099807 0 -0.995685 -0.0927971 0 -0.999826 -0.0186539 0 -0.99973 -0.0232353 0 -0.994046 -0.108959 0 -0.999309 -0.0371721 0 -0.00101441 -0.999999 0 -0.999681 -0.0252652 0 -0.999806 -0.019692 0 -0.992826 -0.11957 0 -0.00192063 -0.999998 0 -0.997442 -0.0714794 0 -0.999742 -0.0227072 0 -0.999918 -0.0127949 0 -0.946928 -0.321447 0 -0.324859 -0.945762 0 -0.2914 -0.956601 0 
VECTORS VYM float