# vtk DataFile Version 3.0
Generated by GMDS VTK Writer

ASCII
DATASET UNSTRUCTURED_GRID
POINTS 2585 float
-46.5362 4.18854 -19.252
24.6026 4.0207 0.856124
-58.5149 3.99969 3.69928
24.4385 4.02014 18.8725
-35.066 4.00135 -7.53136
-50.1228 13.7443 -19.5334
-46.5725 0 -15.4214
-4.89151 16.6657 -23.7762
-42.7694 4.00111 -7.54731
-19.4806 15.4675 19.4969
-23.9612 4.01264 0.0585976
23.9321 4.02709 -19.1184
-80.0409 4.0001 4.00817
-50.7211 4.18757 19.2626
-38.6342 4.0299 -15.6295
-44.3408 34.8159 19.581
-15.9312 13.5951 19.5782
-58.5776 4.04153 -15.5991
20.6752 0 -19.0346
-8.15422 15.3964 19.7317
-34.7294 4.22475 -19.2487
-54.542 4.00097 -7.62965
-62.779 48.7442 -15.898
13.4765 10.9303 19.4527
-16.1558 6.40157 -15.7018
17.071 3.70098 -2.41319
7.31914 15.75 11.9656
20.6415 3.93803 -6.16611
-57.9768 32.23 19.5839
20.5506 3.97573 5.81043
-35.146 4.00103 3.67776
6.03813 16.5768 -19.7154
-20.3886 3.78186 -19.37
-27.5255 4.00687 11.6453
-50.6401 3.99934 -3.74027
-65.8717 4.00017 7.79795
-23.9868 0 19.2559
-58.5288 0 -15.4924
-23.9146 4.00603 -3.66166
-75.5453 4.00074 -0.265789
-54.3234 55.2911 -7.95794
24.2525 4.01562 -9.77433
-50.6808 4.00191 11.6355
-57.8918 32.1377 -19.5444
-79.9177 4.00001 -0.300047
-4.40454 23.9348 -3.97677
4.754 23.8823 3.63196
-46.5625 4.05294 -15.5495
-57.8428 54.2448 -3.97395
33.1897 4.00052 -4.27427
-2.63859 20.4477 -5.37125
6.47444 16.1499 -12.3423
-21.5132 11.9877 -19.4736
-12.7471 29.5744 -16
-14.8416 9.16654 19.6545
-11.1845 23.9207 -19.5038
-12.8761 29.6869 16
-58.4447 4.00382 -11.6728
-27.6093 4.00443 3.73813
-46.6693 4.00113 -7.55839
-23.7958 4.00315 15.5908
-53.3168 31.4449 -19.5654
-35.121 0 -3.62635
-46.725 4.00434 11.6182
-58.7994 32.3047 -3.97996
-27.5086 4.00562 -7.54118
-34.8212 4.06618 -15.5314
-11.0573 13.4056 4.33288
-47.157 53.4152 -15.8857
20.4234 3.97968 -10.4918
1.56302 19.1981 -19.5697
-62.2987 4.00385 -11.7747
37.9384 4.00063 0.376961
-54.7159 4.02415 15.6346
-5.09953 19.7075 2.89273
-23.8513 4.00648 -7.56703
-23.827 4.04073 19.2926
-60.8925 51.7375 7.96652
-62.3413 0 7.62139
-27.3599 4.03683 -15.5365
-58.6612 18.6042 19.4859
-19.5255 15.6016 16
-35.1134 4.0002 -3.63765
-14.7293 9.15839 -15.8093
-54.7825 8.6673 19.4278
-18.0361 10.83 19.5863
-50.7019 4.03254 15.5925
-14.0532 21.3423 -19.5004
-45.8719 13.9643 -19.5108
-35.1698 3.99953 0.0423451
-62.4455 4.00049 -4.02365
16.9794 3.81703 23.5382
-66.4983 4.03786 -19.3998
-50.5661 4.03341 -15.5856
16.9125 3.69402 10.4703
9.45726 14.6746 1.72469
-23.9276 4.00176 3.77074
-14.8032 9.1361 23.7042
-44.4913 50.6567 11.9312
-49.2414 23.6204 16
-0.470585 20.6877 -5.90825
-10.5586 13.8947 -28
-62.6371 4.03572 15.5694
-58.6625 13.4356 -19.525
-50.469 55.0564 7.9571
17.0839 3.66468 6.05307
-27.541 0 -7.52394
-62.4354 4.02313 -15.7131
-38.9609 4.00059 7.56978
-5.04819 16.5021 23.7752
-10.6094 13.8488 -23.7147
-54.6054 4.00056 7.61073
-11.098 23.9581 16
-20.5187 0 11.6696
-46.7058 8 11.7015
-38.2912 8.74799 -19.4419
-39.0774 43.846 11.9449
-42.6836 4.00522 -11.5816
17.1008 3.70996 14.7719
-20.4412 3.80594 19.3575
-8.59354 26.5407 -19.4935
-14.074 21.3626 19.4818
-23.4784 16.8848 16
-4.86532 16.7539 -28
-50.613 4.00156 -7.58346
12.2289 12.3751 1.96622
20.8041 0 5.6446
-31.3269 4.00128 -3.63005
-7.83845 15.5912 -23.7865
20.8181 0 -6.25052
-46.7282 8 7.60077
-14.1838 21.3877 23
-8.78351 15.2095 -3.20195
-10.9833 13.3943 -3.45223
-12.7942 29.5481 -19.4751
-46.6789 4.29809 23
-12.9087 29.6508 19.4865
-17.9212 10.8681 -19.4724
-46.7371 4.00034 7.59094
13.3598 11.127 -15.5306
-62.4433 8 -4.03096
20.4515 3.98599 14.6486
-50.6675 3.99979 3.67936
-66.467 3.9998 3.70399
-20.2652 3.8348 15.6162
-54.3932 13.6066 -19.4839
-12.8659 11.61 4.21596
-38.2396 8.88613 -23
-50.3302 55.2008 15.9044
-54.6025 0 3.67296
20.3607 4.00805 -14.9103
11.0201 13.4499 -7.39187
-20.397 3.85194 7.75276
-57.913 54.1418 7.9679
-29.2463 13.2717 -19.4758
17.05 3.73884 19.116
-23.879 3.99745 11.6699
28.738 4.00502 -20.0725
20.4954 3.99735 -2.38414
-0.648885 25.9452 19.5124
-46.621 4.00856 -11.5733
-2.99917 20.4049 5.09775
-10.6589 13.839 -19.6706
-23.4288 16.8415 19.4995
-5.91444 15.8555 0.455434
-38.7801 4.00739 -11.5882
-26.6182 32.4438 -19.5453
-62.7926 40.9326 15.8848
-26.7707 32.4643 19.5408
-62.6544 4.09658 -19.3278
-23.548 16.8067 23
-31.3559 4.00126 0.0602778
-49.2333 23.6277 23
15.9445 7.21674 -6.80464
-62.4615 0 3.69929
-57.8832 54.2272 -7.95651
-42.83 4.00075 7.57422
-38.8858 4.00497 11.5821
-27.4337 4.00738 -11.5673
-17.1076 3.47282 -15.6072
-62.4073 4.00349 11.6467
-60.8716 51.7846 -7.9586
-38.892 4.00068 -7.54087
12.7779 5.64138 -2.48224
33.5785 0 0.361608
19.4165 8 -6.53555
-30.9857 4.1496 -19.2735
28.6088 4.00843 19.9308
-61.0352 52.1371 -23.9529
-63.463 54.2354 -7.95726
-27.4581 17.7602 -19.5013
-11.2313 13.1176 0.380552
-16.865 32.1545 -19.4895
-18.4313 23.7422 19.4671
-4.98282 16.6732 28
-50.4925 55.1301 11.9379
-33.7511 36.028 -19.5018
-37.4936 37.5395 19.4468
-54.28 55.1808 -23.9481
-16.9759 3.52314 -3.68174
12.0524 17.1874 -19.5893
-50.5805 4.00547 -11.5917
-45.1409 56.5781 19.6959
-10.5677 13.8437 -16.0139
-20.3905 3.85977 0.0876977
-14.7961 9.30818 -19.5868
14.0811 10.1248 -2.59224
-54.3477 55.265 -15.9215
-34.072 35.8389 23
-62.3289 4.00115 -7.84331
-21.0037 20.362 -19.4769
-58.5473 4.00301 11.6364
-54.3508 55.2329 -11.938
-20.3162 3.87841 -15.6345
-58.4536 0 -11.6167
-46.6882 4.02181 15.6384
-50.4078 13.7399 16
-45.1657 19.0421 -19.5388
16.0302 7.06975 -2.49893
-46.6849 4.16255 19.2464
-34.8318 43.1407 19.4981
-58.5435 18.4113 -19.5221
-34.9472 4.00924 -11.562
-31.1668 40.9454 19.4844
-33.4992 13.7498 19.5042
-24.0272 0 -3.66982
-21.0732 20.4619 19.483
-31.0291 40.9928 -19.4884
-31.2366 4.00506 11.6193
-66.197 4.01423 -15.8129
24.5534 4.0246 -2.42271
10.3027 13.9748 19.5745
-34.8995 0 19.2028
-38.9868 4.00053 3.67882
-18.3293 23.6344 -16
-23.8728 30.9884 19.4665
13.4757 10.989 23.7121
-41.9502 31.9167 19.5041
-31.1686 4.00779 -11.566
-39.5929 24.7564 -19.5027
10.2147 14.1238 6.62032
-39.7919 24.8824 19.4975
-62.8915 18.6824 19.4507
-27.5346 38.6382 19.4999
-27.4145 8 -11.6218
-27.4402 38.6364 -19.5016
-3.90145 16.922 -9.00499
10.0624 14.1684 -15.779
-46.7488 4.00004 3.6932
-20.6327 0 19.336
-12.9 11.7055 -19.6338
24.2726 0 -9.74876
-8.40776 11.172 -19.7579
-50.4092 13.6815 19.5008
-9.3252 23.7913 5.66961
-18.3149 23.6422 -19.5135
-12.8713 11.5336 -7.71821
-44.1601 24.709 -19.4877
4.74715 13.1228 -19.7313
-58.5391 23.2925 19.5261
-62.3159 0 -7.84351
-58.5445 18.353 -16
-62.3891 8 11.6786
-42.7845 4.00769 11.5803
-63.5634 44.9489 -23.7025
-42.4505 8.88033 19.416
-54.2869 55.2594 7.96375
-38.5104 8 -16
-45.3754 19.3328 19.5131
-54.6188 58.8464 -7.95555
-58.4913 27.8038 19.5444
-41.879 14.1634 23
-40.6827 19.4751 -19.5001
17.0216 3.73626 -10.8346
-16.175 6.54474 -11.7189
20.5746 4.00416 10.2092
-23.781 4.05626 23
-29.5048 23.0427 -19.4794
-30.5612 8.61453 19.4325
-45.8946 13.9469 -23
-38.7261 4.17312 19.2445
-34.0442 35.8099 19.4539
-11.0669 23.8611 -16
-59.543 57.333 7.96793
-30.3085 34.1658 19.5225
-12.4112 11.9606 0.319978
-30.1648 34.2086 -19.5264
4.30917 24.0006 -4.03701
-4.95831 23.8942 3.16047
-12.9842 29.7118 23
-12.8965 29.6197 -23
-24.0493 36.4522 19.518
-62.8698 23.6885 19.522
-53.3518 37.059 15.845
-62.8148 23.6736 -19.5298
-17.1113 3.48483 -11.6272
-62.4266 0 -4.03043
-46.564 0 -19.1686
-54.583 4.04993 -15.5421
-23.9776 36.4126 -19.5298
-2.9204 24.1187 5.15003
2.10387 24.2449 -5.55271
-23.8262 4.00537 -11.576
-58.6055 8 11.6987
17.1139 3.6589 1.76724
-58.8533 8.62346 19.4486
-2.54109 21.6756 -19.5253
-53.6924 31.4915 19.5551
-33.3106 13.7124 -16
-58.5083 0 -3.88982
-58.5076 4.00006 -3.88857
-63.3019 40.8735 19.7806
-54.3172 55.3333 -19.9211
-42.5906 4.06949 -15.5273
-37.417 14.076 -19.5475
24.364 8 -5.2437
-50.7245 4.27833 23
4.06595 22.6981 19.5485
-20.5805 0 15.5584
-27.5462 38.6482 23
-27.4479 38.6423 -23
-62.7253 48.6866 19.8977
-14.8894 9.14733 28
-17.1795 32.3852 19.5204
-62.8805 13.4629 -19.495
15.825 7.38943 -11.0848
-58.3764 23.0712 -19.4976
-38.8175 45.6427 -19.5059
-23.0048 7.98154 -19.428
-41.428 52.8013 11.9468
-66.3323 0 -19.3263
-17.0462 3.4457 19.5104
29.6808 4.01135 -16.0996
-15.691 26.7906 19.535
-54.2378 55.3618 15.9309
-39.3171 42.1323 -7.96262
-50.4506 55.0368 -15.9042
-54.0577 23.1773 19.4956
-62.9302 48.8155 23.9055
-80.0268 4.00014 -4.4386
-66.27 4.01605 15.703
-42.8551 4.001 3.66258
-49.9235 18.7394 23
-27.6646 0 3.73638
-62.8497 23.639 16
-30.9613 4.21211 -23
-31.356 0 3.70799
-66.5036 0 -4.23446
-50.5619 4.23186 -19.271
-31.3468 8 3.7232
-25.4692 12.7919 19.4996
-16.0469 6.46083 7.90092
-23.9927 0 7.66306
6.60309 16.3046 19.6904
-22.4423 25.5393 -19.4795
-8.34759 11.203 -15.9684
-22.7162 25.6775 19.4819
-20.2733 3.92175 -3.67702
-38.6119 44.977 19.5508
-42.6729 4.18337 19.2958
-40.7905 39.483 19.565
-59.5044 57.3407 -3.97391
-46.7368 0 -0.0187261
-13.008 11.7192 23.7359
-29.8062 23.3065 19.5167
-20.387 3.8418 -11.6123
-41.2408 32.4626 -19.4833
-62.8456 23.6123 23
-38.7864 4.04648 15.5701
-50.4404 54.9508 0.00300165
-62.2077 34.0197 -19.5669
2.31288 17.3109 -9.64448
-15.8995 13.7653 -19.4883
-75.5705 0 -0.236914
-45.1613 46.0057 19.705
-31.3448 0 0.0544776
-50.6077 0 -7.57321
-58.688 18.5849 23
6.50129 16.1153 23.6619
33.551 4.00202 0.361782
-17.0519 3.45906 0.101435
-54.6095 8 7.62435
-16.0823 6.54267 15.7944
-46.6198 0 -11.5272
-33.5782 13.6758 16
-4.55868 16.8032 12.9434
-17.3597 0 11.7125
-21.5528 11.9708 -23
-27.517 0 15.4974
38.1965 3.99948 4.66864
28.8704 0 0.336763
-20.3397 3.89307 3.84438
-7.76007 15.5169 -12.8416
6.79711 16.0947 7.46282
-62.6244 48.5057 7.96729
24.4884 8 0.99727
15.8538 7.29901 14.9578
-62.2476 34.2435 19.5902
-17.0961 3.49662 7.80032
-20.6322 0 -19.3111
-31.3357 0 7.59198
-58.8524 4.21468 23
16.0717 7.02713 1.83618
-17.7819 11.1246 -3.7125
-0.850272 17.3869 -9.83494
-22.7128 25.6785 16
-46.7449 8 3.68523
-16.1733 6.57671 0.134578
-80.0667 8 4.05653
-1.77602 17.4145 -16.102
28.9163 4.00534 4.79579
-22.4733 25.524 -16
-27.6673 0 7.62408
-62.7558 28.6053 -19.5292
-36.1939 19.1653 -16
[...]
POINT_DATA 2585
SCALARS GMDS_ID int 1
LOOKUP_TABLE default
0 1 2 3 4 5 6 7 8 9 10 11 12 13 14 15 16 17 18 19 20 21 22 23 24 25 26 27 28 29 30 31 32 33 34 35 36 37 38 39 40 41 42 43 44 45 46 47 48 49 50 51 52 53 54 55 56 57 58 59 60 61 62 63 64 65 66 67 68 69 70 71 72 73 74 75 76 77 78 79 80 81 82 83 84 85 86 87 88 89 90 91 92 93 94 95 96 97 98 99 100 101 102 103 104 105 106 107 108 109 110 111 112 113 114 115 116 117 118 119 120 121 122 123 124 125 126 127 128 129 130 131 132 133 134 135 136 137 138 139 140 141 142 143 144 145 146 147 148 149 150 151 152 153 154 155 156 157 158 159 160 161 162 163 164 165 166 167 168 169 170 171 172 173 174 175 176 177 178 179 180 181 182 183 184 185 186 187 188 189 190 191 192 193 194 195 196 197 198 199 200 201 202 203 204 205 206 207 208 209 210 211 212 213 214 215 216 217 218 219 220 221 222 223 224 225 226 227 228 229 230 231 232 233 234 235 236 237 238 239 240 241 242 243 244 245 246 247 248 249 250 251 252 253 254 255 256 257 258 259 260 261 262 263 264 265 266 267 268 269 270 271 272 273 274 275 276 277 278 279 280 281 282 283 284 285 286 287 288 289 290 291 292 293 294 295 296 297 298 299 300 301 302 303 304 305 306 307 308 309 310 311 312 313 314 315 316 317 318 319 320 321 322 323 324 325 326 327 328 329 330 331 332 333 334 335 336 337 338 339 340 341 342 343 344 345 346 347 348 349 350 351 352 353 354 355 356 357 358 359 360 361 362 363 364 365 366 367 368 369 370 371 372 373 374 375 376 377 378 379 380 381 382 383 384 385 386 387 388 389 390 391 392 393 394 395 396 397 398 399 400 401 402 403 404 405 406 407 408 409 410 411 412 413 414 415 416 417 418 419 420 421 422 423 424 425 426 427 428 429 430 431 432 433 434 435 436 437 438 439 440 441 442 443 444 445 446 447 448 449 450 451 452 453 454 455 456 457 458 459 460 461 462 463 464 465 466 467 468 469 470 471 472 473 474 475 476 477 478 479 480 481 482 483 484 485 486 487 488 489 490 491 492 493 494 495 496 497 498 499 500 501 502 503 504 505 506 507 508 509 510 511 512 513 514 515 516 517 518 519 520 521 522 523 524 525 526 527 528 529 530 531 532 533 534 535 536 537 538 539 540 541 542 543 544 545 546 547 548 549 550 551 552 553 554 555 556 557 558 559 560 561 562 563 564 565 566 567 568 569 570 571 572 573 574 575 576 577 578 579 580 581 582 583 584 585 586 587 588 589 590 591 592 593 594 595 596 597 598 599 600 601 602 603 604 605 606 607 608 609 610 611 612 613 614 615 616 617 618 619 620 621 622 623 624 625 626 627 628 629 630 631 632 633 634 635 636 637 638 639 640 641 642 643 644 645 646 647 648 649 650 651 652 653 654 655 656 657 658 659 660 661 662 663 664 665 666 667 668 669 670 671 672 673 674 675 676 677 678 679 680 681 682 683 684 685 686 687 688 689 690 691 692 693 694 695 696 697 698 699 700 701 702 703 704 705 706 707 708 709 710 711 712 713 714 715 716 717 718 719 720 721 722 723 724 725 726 727 728 729 730 731 732 733 734 735 736 737 738 739 740 741 742 743 744 745 746 747 748 749 750 751 752 753 754 755 756 757 758 759 760 761 762 763 764 765 766 767 768 769 770 771 772 773 774 775 776 777 778 779 780 781 782 783 784 785 786 787 788 789 790 791 792 793 794 795 796 797 798 799 800 801 802 803 804 805 806 807 808 809 810 811 812 813 814 815 816 817 818 819 820 821 822 823 824 825 826 827 828 829 830 831 832 833 834 835 836 837 838 839 840 841 842 843 844 845 846 847 848 849 850 851 852 853 854 855 856 857 858 859 860 861 862 863 864 865 866 867 868 869 870 871 872 873 874 875 876 877 878 879 880 881 882 883 884 885 886 887 888 889 890 891 892 893 894 895 896 897 898 899 900 901 902 903 904 905 906 907 908 909 910 911 912 913 914 915 916 917 918 919 920 921 922 923 924 925 926 927 928 929 930 931 932 933 934 935 936 937 938 939 940 941 942 943 944 945 946 947 948 949 950 951 952 953 954 955 956 957 958 959 960 961 962 963 964 965 966 967 968 969 970 971 972 973 974 975 976 977 978 979 980 981 982 983 984 985 986 987 988 989 990 991 992 993 994 995 996 997 998 999 1000 1001 1002 1003 1004 1005 1006 1007 1008 1009 1010 1011 1012 1013 1014 1015 1016 1017 1018 1019 1020 1021 1022 1023 1024 1025 1026 1027 1028 1029 1030 1031 1032 1033 1034 1035 1036 1037 1038 1039 1040 1041 1042 1043 1044 1045 1046 1047 1048 1049 1050 1051 1052 1053 1054 1055 1056 1057 1058 1059 1060 1061 1062 1063 1064 1065 1066 1067 1068 1069 1070 1071 1072 1073 1074 1075 1076 1077 1078 1079 1080 1081 1082 1083 1084 1085 1086 1087 1088 1089 1090 1091 1092 1093 1094 1095 1096 1097 1098 1099 1100 1101 1102 1103 1104 1105 1106 1107 1108 1109 1110 1111 1112 1113 1114 1115 1116 1117 1118 1119 1120 1121 1122 1123 1124 1125 1126 1127 1128 1129 1130 1131 1132 1133 1134 1135 1136 1137 1138 1139 1140 1141 1142 1143 1144 1145 1146 1147 1148 1149 1150 1151 1152 1153 1154 1155 1156 1157 1158 1159 1160 1161 1162 1163 1164 1165 1166 1167 1168 1169 1170 1171 1172 1173 1174 1175 1176 1177 1178 1179 1180 1181 1182 1183 1184 1185 1186 1187 1188 1189 1190 1191 1192 1193 1194 1195 1196 1197 1198 1199 1200 1201 1202 1203 1204 1205 1206 1207 1208 1209 1210 1211 1212 1213 1214 1215 1216 1217 1218 1219 1220 1221 1222 1223 1224 1225 1226 1227 1228 1229 1230 1231 1232 1233 1234 1235 1236 1237 1238 1239 1240 1241 1242 1243 1244 1245 1246 1247 1248 1249 1250 1251 1252 1253 1254 1255 1256 1257 1258 1259 1260 1261 1262 1263 1264 1265 1266 1267 1268 1269 1270 1271 1272 1273 1274 1275 1276 1277 1278 1279 1280 1281 1282 1283 1284 1285 1286 1287 1288 1289 1290 1291 1292 1293 1294 1295 1296 1297 1298 1299 1300 1301 1302 1303 1304 1305 1306 1307 1308 1309 1310 1311 1312 1313 1314 1315 1316 1317 1318 1319 1320 1321 1322 1323 1324 1325 1326 1327 1328 1329 1330 1331 1332 1333 1334 1335 1336 1337 1338 1339 1340 1341 1342 1343 1344 1345 1346 1347 1348 1349 1350 1351 1352 1353 1354 1355 1356 1357 1358 1359 1360 1361 1362 1363 1364 1365 1366 1367 1368 1369 1370 1371 1372 1373 1374 1375 1376 1377 1378 1379 1380 1381 1382 1383 1384 1385 1386 1387 1388 1389 1390 1391 1392 1393 1394 1395 1396 1397 1398 1399 1400 1401 1402 1403 1404 1405 1406 1407 1408 1409 1410 1411 1412 1413 1414 1415 1416 1417 1418 1419 1420 1421 1422 1423 1424 1425 1426 1427 1428 1429 1430 1431 1432 1433 1434 1435 1436 1437 1438 1439 1440 1441 1442 1443 1444 1445 1446 1447 1448 1449 1450 1451 1452 1453 1454 1455 1456 1457 1458 1459 1460 1461 1462 1463 1464 1465 1466 1467 1468 1469 1470 1471 1472 1473 1474 1475 1476 1477 1478 1479 1480 1481 1482 1483 1484 1485 1486 1487 1488 1489 1490 1491 1492 1493 1494 1495 1496 1497 1498 1499 1500 1501 1502 1503 1504 1505 1506 1507 1508 1509 1510 1511 1512 1513 1514 1515 1516 1517 1518 1519 1520 1521 1522 1523 1524 1525 1526 1527 1528 1529 1530 1531 1532 1533 1534 1535 1536 1537 1538 1539 1540 1541 1542 1543 1544 1545 1546 1547 1548 1549 1550 1551 1552 1553 1554 1555 1556 1557 1558 1559 1560 1561 1562 1563 1564 1565 1566 1567 1568 1569 1570 1571 1572 1573 1574 1575 1576 1577 1578 1579 1580 1581 1582 1583 1584 1585 1586 1587 1588 1589 1590 1591 1592 1593 1594 1595 1596 1597 1598 1599 1600 1601 1602 1603 1604 1605 1606 1607 1608 1609 1610 1611 1612 1613 1614 1615 1616 1617 1618 1619 1620 1621 1622 1623 1624 1625 1626 1627 1628 1629 1630 1631 1632 1633 1634 1635 1636 1637 1638 1639 1640 1641 1642 1643 1644 1645 1646 1647 1648 1649 1650 1651 1652 1653 1654 1655 1656 1657 1658 1659 1660 1661 1662 1663 1664 1665 1666 1667 1668 1669 1670 1671 1672 1673 1674 1675 1676 1677 1678 1679 1680 1681 1682 1683 1684 1685 1686 1687 1688 1689 1690 1691 1692 1693 1694 1695 1696 1697 1698 1699 1700 1701 1702 1703 1704 1705 1706 1707 1708 1709 1710 1711 1712 1713 1714 1715 1716 1717 1718 1719 1720 1721 1722 1723 1724 1725 1726 1727 1728 1729 1730 1731 1732 1733 1734 1735 1736 1737 1738 1739 1740 1741 1742 1743 1744 1745 1746 1747 1748 1749 1750 1751 1752 1753 1754 1755 1756 1757 1758 1759 1760 1761 1762 1763 1764 1765 1766 1767 1768 1769 1770 1771 1772 1773 1774 1775 1776 1777 1778 1779 1780 1781 1782 1783 1784 1785 1786 1787 1788 1789 1790 1791 1792 1793 1794 1795 1796 1797 1798 1799 1800 1801 1802 1803 1804 1805 1806 1807 1808 1809 1810 1811 1812 1813 1814 1815 1816 1817 1818 1819 1820 1821 1822 1823 1824 1825 1826 1827 1828 1829 1830 1831 1832 1833 1834 1835 1836 1837 1838 1839 1840 1841 1842 1843 1844 1845 1846 1847 1848 1849 1850 1851 1852 1853 1854 1855 1856 1857 1858 1859 1860 1861 1862 1863 1864 1865 1866 1867 1868 1869 1870 1871 1872 1873 1874 1875 1876 1877 1878 1879 1880 1881 1882 1883 1884 1885 1886 1887 1888 1889 1890 1891 1892 1893 1894 1895 1896 1897 1898 1899 1900 1901 1902 1903 1904 1905 1906 1907 1908 1909 1910 1911 1912 1913 1914 1915 1916 1917 1918 1919 1920 1921 1922 1923 1924 1925 1926 1927 1928 1929 1930 1931 1932 1933 1934 1935 1936 1937 1938 1939 1940 1941 1942 1943 1944 1945 1946 1947 1948 1949 1950 1951 1952 1953 1954 1955 1956 1957 1958 1959 1960 1961 1962 1963 1964 1965 1966 1967 1968 1969 1970 1971 1972 1973 1974 1975 1976 1977 1978 1979 1980 1981 1982 1983 1984 1985 1986 1987 1988 1989 1990 1991 1992 1993 1994 1995 1996 1997 1998 1999 2000 2001 2002 2003 2004 2005 2006 2007 2008 2009 2010 2011 2012 2013 2014 2015 2016 2017 2018 2019 2020 2021 2022 2023 2024 2025 2026 2027 2028 2029 2030 2031 2032 2033 2034 2035 2036 2037 2038 2039 2040 2041 2042 2043 2044 2045 2046 2047 2048 2049 2050 2051 2052 2053 2054 2055 2056 2057 2058 2059 2060 2061 2062 2063 2064 2065 2066 2067 2068 2069 2070 2071 2072 2073 2074 2075 2076 2077 2078 2079 2080 2081 2082 2083 2084 2085 2086 2087 2088 2089 2090 2091 2092 2093 2094 2095 2096 2097 2098 2099 2100 2101 2102 2103 2104 2105 2106 2107 2108 2109 2110 2111 2112 2113 2114 2115 2116 2117 2118 2119 2120 2121 2122 2123 2124 2125 2126 2127 2128 2129 2130 2131 2132 2133 2134 2135 2136 2137 2138 2139 2140 2141 2142 2143 2144 2145 2146 2147 2148 2149 2150 2151 2152 2153 2154 2155 2156 2157 2158 2159 2160 2161 2162 2163 2164 2165 2166 2167 2168 2169 2170 2171 2172 2173 2174 2175 2176 2177 2178 2179 2180 2181 2182 2183 2184 2185 2186 2187 2188 2189 2190 2191 2192 2193 2194 2195 2196 2197 2198 2199 2200 2201 2202 2203 2204 2205 2206 2207 2208 2209 2210 2211 2212 2213 2214 2215 2216 2217 2218 2219 2220 2221 2222 2223 2224 2225 2226 2227 2228 2229 2230 2231 2232 2233 2234 2235 2236 2237 2238 2239 2240 2241 2242 2243 2244 2245 2246 2247 2248 2249 2250 2251 2252 2253 2254 2255 2256 2257 2258 2259 2260 2261 2262 2263 2264 2265 2266 2267 2268 2269 2270 2271 2272 2273 2274 2275 2276 2277 2278 2279 2280 2281 2282 2283 2284 2285 2286 2287 2288 2289 2290 2291 2292 2293 2294 2295 2296 2297 2298 2299 2300 2301 2302 2303 2304 2305 2306 2307 2308 2309 2310 2311 2312 2313 2314 2315 2316 2317 2318 2319 2320 2321 2322 2323 2324 2325 2326 2327 2328 2329 2330 2331 2332 2333 2334 2335 2336 2337 2338 2339 2340 2341 2342 2343 2344 2345 2346 2347 2348 2349 2350 2351 2352 2353 2354 2355 2356 2357 2358 2359 2360 2361 2362 2363 2364 2365 2366 2367 2368 2369 2370 2371 2372 2373 2374 2375 2376 2377 2378 2379 2380 2381 2382 2383 2384 2385 2386 2387 2388 2389 2390 2391 2392 2393 2394 2395 2396 2397 2398 2399 2400 2401 2402 2403 2404 2405 2406 2407 2408 2409 2410 2411 2412 2413 2414 2415 2416 2417 2418 2419 2420 2421 2422 2423 2424 2425 2426 2427 2428 2429 2430 2431 2432 2433 2434 2435 2436 2437 2438 2439 2440 2441 2442 2443 2444 2445 2446 2447 2448 2449 2450 2451 2452 2453 2454 2455 2456 2457 2458 2459 2460 2461 2462 2463 2464 2465 2466 2467 2468 2469 2470 2471 2472 2473 2474 2475 2476 2477 2478 2479 2480 2481 2482 2483 2484 2485 2486 2487 2488 2489 2490 2491 2492 2493 2494 2495 2496 2497 2498 2499 2500 2501 2502 2503 2504 2505 2506 2507 2508 2509 2510 2511 2512 2513 2514 2515 2516 2517 2518 2519 2520 2521 2522 2523 2524 2525 2526 2527 2528 2529 2530 2531 2532 2533 2534 2535 2536 2537 2538 2539 2540 2541 2542 2543 2544 2545 2546 2547 2548 2549 2550 2551 2552 2553 2554 2555 2556 2557 2558 2559 2560 2561 2562 2563 2564 2565 2566 2567 2568 2569 2570 2571 2572 2573 2574 2575 2576 2577 2578 2579 2580 2581 2582 2583 2584 
SCALARS BND_VERTEX_COLOR int 1
LOOKUP_TABLE default
0 0 0 0 0 0 0 0 0 0 0 0 0 0 0 0 0 0 0 0 0 0 0 0 0 0 0 0 0 0 0 0 0 0 0 0 0 0 0 0 0 0 0 0 0 0 0 0 0 0 0 0 0 0 0 0 0 0 0 0 0 0 0 0 0 0 0 0 0 0 0 0 0 0 0 0 0 0 0 0 0 0 0 0 0 0 0 0 0 0 0 0 0 0 0 0 0 0 0 0 0 0 0 0 0 0 0 0 0 0 0 0 0 0 0 0 0 0 0 0 0 0 0 0 0 0 0 0 0 0 0 0 0 0 0 0 0 0 0 0 0 0 0 0 0 0 0 0 0 0 0 0 0 0 0 0 0 0 0 0 0 0 0 0 0 0 0 0 0 0 0 0 0 0 0 0 0 0 0 0 0 0 0 0 0 0 0 0 0 0 0 0 0 0 0 0 0 0 0 0 0 0 0 0 0 0 0 0 0 0 0 0 0 0 0 0 0 0 0 0 0 0 0 0 0 0 0 0 0 0 0 0 0 0 0 0 0 0 0 0 0 0 0 0 0 0 0 0 0 0 0 0 0 0 0 0 0 0 0 0 0 0 0 0 0 0 0 0 0 0 0 0 0 0 0 0 0 0 0 0 0 0 0 0 0 0 0 0 0 0 0 0 0 0 0 0 0 0 0 0 0 0 0 0 0 0 0 0 0 0 0 0 0 0 0 0 0 0 0 0 0 0 0 0 0 0 0 0 0 0 0 0 0 0 0 0 0 0 0 0 0 0 0 0 0 0 0 0 0 0 0 0 0 0 0 0 0 0 0 0 0 0 0 0 0 0 0 0 0 0 0 0 0 0 0 0 0 0 0 0 0 0 0 0 0 0 0 0 0 0 0 0 0 0 0 0 0 0 0 0 0 0 0 0 0 0 0 0 0 0 0 0 0 0 0 0 0 0 0 0 0 0 0 0 0 0 0 0 0 0 0 0 0 0 0 0 0 0 0 0 0 0 0 0 0 0 0 0 0 0 0 0 0 0 0 0 0 0 0 0 0 0 0 0 0 0 0 0 0 0 0 0 0 0 0 0 0 0 0 0 0 0 0 0 0 0 0 0 0 0 0 0 0 0 0 0 0 0 0 0 0 0 0 0 0 0 0 0 0 0 0 0 0 0 0 0 0 0 0 0 0 0 0 0 0 0 0 0 0 0 0 0 0 0 0 0 0 0 0 0 0 0 0 0 0 0 0 0 0 0 0 0 0 0 0 0 0 0 0 0 0 0 0 0 0 0 0 0 0 0 0 0 0 0 0 0 0 0 0 0 0 0 0 0 0 0 0 0 0 0 0 0 0 0 0 0 0 0 0 0 0 0 0 0 0 0 0 0 0 0 0 0 0 0 0 0 0 0 0 0 0 0 0 0 0 0 0 0 0 0 0 0 0 0 0 0 0 0 0 0 0 0 0 0 0 0 0 0 0 0 0 0 0 0 0 0 0 0 0 0 0 0 0 0 0 0 0 0 0 0 0 0 0 0 0 0 0 0 0 0 0 0 0 0 0 0 0 0 0 0 0 0 0 0 0 0 0 0 0 0 0 0 0 0 0 0 0 0 0 0 0 0 0 0 0 0 0 0 0 0 0 0 0 0 0 0 0 0 0 0 0 0 0 0 0 0 0 0 0 0 0 0 0 0 0 0 0 0 0 0 0 0 0 0 0 0 0 0 0 0 0 0 0 0 0 0 0 0 0 0 0 0 0 0 0 0 0 0 0 0 0 0 0 0 0 0 0 0 0 0 0 0 0 0 0 0 0 0 0 0 0 0 0 0 0 0 0 0 0 0 0 0 0 0 0 0 0 0 0 0 0 0 0 0 0 0 0 0 0 0 0 0 0 0 0 0 0 0 0 0 0 0 0 0 0 0 0 0 0 0 0 0 0 0 0 0 0 0 0 0 0 0 0 0 0 0 0 0 0 0 0 0 0 0 0 0 0 0 0 0 0 0 0 0 0 0 0 0 0 0 0 0 0 0 0 0 0 0 0 0 0 0 0 0 0 0 0 0 0 0 0 0 0 0 0 0 0 0 0 0 0 0 0 0 0 0 0 0 0 0 0 0 0 0 0 0 0 0 0 0 0 0 0 0 0 0 0 0 0 0 0 0 0 0 0 0 0 0 0 0 0 0 0 0 0 0 0 0 0 0 0 0 0 0 0 0 0 0 0 0 0 0 0 0 0 0 0 0 0 0 0 0 0 0 0 0 0 0 0 0 0 0 0 0 0 0 0 0 0 0 0 0 0 0 0 0 0 0 0 0 0 0 0 0 0 0 0 0 0 0 0 0 0 0 0 0 0 0 0 0 0 0 0 0 0 0 0 0 0 0 0 0 0 0 0 0 0 0 0 0 0 0 0 0 0 0 0 0 0 0 0 0 0 0 0 0 0 0 0 0 0 0 0 0 0 0 0 0 0 0 0 0 0 0 0 0 0 0 0 0 0 0 0 0 0 0 0 0 0 0 0 0 0 0 0 0 0 0 0 0 0 0 0 0 0 0 0 0 0 0 0 0 0 0 0 0 0 0 0 0 0 0 0 0 0 0 0 0 0 0 0 0 0 0 0 0 0 0 0 0 0 0 0 0 0 0 0 0 0 0 0 0 0 0 0 0 0 0 0 0 0 0 0 0 0 0 0 0 0 0 0 0 0 0 0 0 0 0 0 0 0 0 0 0 0 0 0 0 0 0 0 0 0 0 0 0 0 0 0 0 0 0 0 0 0 0 0 0 0 0 0 0 0 0 0 0 0 0 0 0 0 0 0 0 0 0 0 0 0 0 0 0 0 0 0 0 0 0 0 0 0 0 0 0 0 0 0 0 0 0 0 0 0 0 0 0 0 0 0 0 0 0 0 0 0 0 0 0 0 0 0 0 0 0 0 0 0 0 0 0 0 0 0 0 0 0 0 0 0 0 0 0 0 0 0 0 0 0 0 0 0 0 0 0 0 0 0 0 0 0 0 0 0 0 0 0 0 0 0 0 0 0 0 0 0 0 0 0 0 0 0 0 0 0 0 0 0 0 0 0 0 0 0 0 0 0 0 0 0 0 0 0 0 0 0 0 0 0 0 0 0 0 0 0 0 0 0 0 0 0 0 0 0 0 0 0 0 0 0 0 0 0 0 0 0 0 0 0 0 0 0 0 0 0 0 0 0 0 0 0 0 0 0 0 0 0 0 0 0 0 0 0 0 0 0 0 0 0 0 0 0 0 0 0 0 0 0 0 0 0 0 0 0 0 0 0 0 0 0 0 0 0 0 0 0 0 0 0 0 0 0 0 0 0 0 0 0 0 0 0 0 0 0 0 0 0 0 0 0 0 0 0 0 0 0 0 0 0 0 0 0 0 0 0 0 0 0 0 0 0 0 0 0 0 0 0 0 0 0 0 0 0 0 0 0 0 0 0 0 0 0 0 0 0 0 0 0 0 0 0 0 0 0 0 0 0 0 0 0 0 0 0 0 0 0 0 0 0 0 0 0 0 0 0 0 0 0 0 0 0 0 0 0 0 0 0 0 0 0 0 0 0 0 0 0 0 0 0 0 0 0 0 0 0 0 0 0 0 0 0 0 0 0 0 0 0 0 0 0 0 0 0 0 0 0 0 0 0 0 0 0 0 0 0 0 0 0 0 0 0 0 0 0 0 0 0 0 0 0 0 0 0 0 0 0 0 0 0 0 0 0 0 0 0 0 0 0 0 0 0 0 0 0 0 0 0 0 0 0 0 0 0 0 0 0 0 0 0 0 0 0 0 0 0 0 0 0 0 0 0 0 0 0 0 0 0 0 0 0 0 0 0 0 0 0 0 0 0 0 0 0 0 0 0 0 0 0 0 0 0 0 0 0 0 0 0 0 0 0 0 0 0 0 0 0 0 0 0 0 0 0 0 0 0 0 0 0 0 0 0 0 0 0 0 0 0 0 0 0 0 0 0 0 0 0 0 0 0 0 0 0 0 0 0 0 0 0 0 0 0 0 0 0 0 0 0 0 0 0 0 0 0 0 0 0 0 0 0 0 0 0 0 0 0 0 0 0 0 0 0 0 0 0 0 0 0 0 0 0 0 0 0 0 0 0 0 0 0 0 0 0 0 0 0 0 0 0 0 0 0 0 0 0 0 0 0 0 0 0 0 0 0 0 0 0 0 0 0 0 0 0 0 0 0 0 0 0 0 0 0 0 0 0 0 0 0 0 0 0 0 0 0 0 0 0 0 0 0 0 0 0 0 0 0 0 0 0 0 0 0 0 0 0 0 0 0 0 0 0 0 0 0 0 0 0 0 0 0 0 0 0 0 0 0 0 0 0 0 0 0 0 0 0 0 0 0 0 0 0 0 0 0 0 0 0 0 0 0 0 0 0 0 0 0 0 0 0 0 0 0 0 0 0 0 0 0 0 0 0 0 0 0 0 0 0 0 0 0 0 0 0 0 0 0 0 0 0 0 0 0 0 0 0 0 0 0 0 0 0 0 0 0 0 0 0 0 0 0 0 0 0 0 0 0 0 0 0 0 0 0 0 0 0 0 0 0 0 0 0 0 0 0 0 0 0 0 0 0 0 0 0 0 0 0 0 0 0 0 0 0 0 0 0 0 0 0 0 0 0 0 0 0 0 0 0 0 0 0 0 0 0 0 0 0 0 0 0 0 0 0 0 0 0 0 0 0 0 0 0 0 0 0 0 0 0 0 0 0 0 0 0 0 0 0 0 0 0 0 0 0 0 0 0 0 0 0 0 0 0 0 0 0 0 0 0 0 0 0 0 0 0 0 0 0 0 0 0 0 0 0 0 0 0 0 0 0 0 0 0 0 0 0 0 0 0 0 0 0 0 0 0 0 0 0 0 0 0 0 0 0 0 0 0 0 0 0 0 0 0 0 0 0 0 0 0 0 0 0 0 0 0 0 0 0 0 0 0 0 0 0 0 0 0 0 0 0 0 0 0 0 0 0 0 0 0 0 0 0 0 0 0 0 0 0 0 0 0 0 0 0 0 0 0 0 0 0 0 0 0 0 0 0 0 0 0 0 0 0 0 0 0 0 0 0 0 0 0 0 0 0 0 0 0 0 0 0 0 0 0 0 0 0 0 0 0 0 0 0 0 0 0 0 0 0 0 0 0 0 0 0 0 0 0 0 0 0 0 0 0 0 0 0 0 0 0 0 0 0 0 0 0 0 0 0 0 0 0 0 0 0 0 0 0 0 0 0 0 0 0 0 0 0 0 0 0 0 0 0 0 0 0 0 0 0 0 0 0 0 0 0 0 0 0 0 0 0 0 0 0 0 0 0 0 0 0 0 0 0 0 0 0 0 0 0 0 0 0 0 0 0 0 0 0 0 0 0 0 0 0 0 0 0 0 0 0 0 0 0 0 0 0 0 0 0 0 0 0 0 0 0 0 0 0 0 0 0 0 0 0 0 0 0 0 0 0 0 0 0 0 0 0 0 0 0 0 0 0 0 0 0 0 0 0 0 0 0 0 0 0 0 0 0 0 0 0 0 0 0 0 0 0 0 0 0 0 0 0 0 0 0 0 0 0 0 0 0 0 0 0 0 0 0 0 0 0 0 0 0 0 0 0 0 0 0 0 0 0 0 0 0 0 0 0 0 0 0 0 0 0 0 0 0 0 0 0 0 0 0 0 0 0 0 0 0 0 0 0 0 0 0 0 0 0 0 0 0 0 0 0 0 0 0 0 0 0 0 0 0 0 0 0 0 0 0 0 0 0 0 0 0 0 0 0 0 0 0 0 0 0 0 0 0 0 0 0 0 0 0 0 0 0 0 0 0 0 
SCALARS BND_CURVE_COLOR int 1
LOOKUP_TABLE default