# vtk DataFile Version 3.0
Generated by GMDS VTK Writer

ASCII
DATASET UNSTRUCTURED_GRID
POINTS 8 float
0 0 0
4 0 0
4 0 4
0 0 4
0 4 0
4 4 0
4 4 4
0 4 4

CELLS 6 30
4 3 0 1 2 
4 3 2 6 7 
4 2 1 5 6 
4 1 0 4 5 
4 3 7 4 0 
4 7 6 5 4 

CELL_TYPES 6
9 
9 
9 
9 
9 
9 
POINT_DATA 8
SCALARS GMDS_ID int 1
LOOKUP_TABLE default
0 1 2 3 4 5 6 7 


CELL_DATA 6
SCALARS GMDS_ID int 1
LOOKUP_TABLE default
0 1 2 3 4 5 

SCALARS BND_SURFACE_COLOR int 1
LOOKUP_TABLE default
1 2 3 4 5 6 

