# vtk DataFile Version 3.0
Generated by GMDS VTK Writer

ASCII
DATASET UNSTRUCTURED_GRID
POINTS 16 float
0 0 0
10 0 0
10 10 0
0 10 0
0 0 10
10 0 10
10 10 10
0 10 10
3 3 3
7 3 3
7 7 3
3 7 3
3 3 7
7 3 7
7 7 7
3 7 7

CELLS 7 63
8 0 1 2 3 8 9 10 11
8 1 5 6 2 9 13 14 10 
8 8 9 10 11 12 13 14 15
8 0 4 5 1 8 12 13 9
8 3 7 4 0 11 15 12 8 
8 2 6 7 3 10 14 15 11
8 4 7 6 5 12 15 14 13

CELL_TYPES 7
12 
12 
12 
12 
12 
12 
12 
POINT_DATA 16
SCALARS GMDS_ID int 1
LOOKUP_TABLE default
0 1 2 3 4 5 6 7 8 9 10 11 12 13 14 15 


