# vtk DataFile Version 3.0
Generated by GMDS VTK Writer

ASCII
DATASET UNSTRUCTURED_GRID
POINTS 27 float
0 0 0
0 0 2
0 0 4
0 2 0
0 2 2
0 2 4
0 4 0
0 4 2
0 4 4
2 0 0
2 0 2
2 0 4
2 2 0
2 2 2
2 2 4
2 4 0
2 4 2
2 4 4
4 0 0
4 0 2
4 0 4
4 2 0
4 2 2
4 2 4
4 4 0
4 4 2
4 4 4

CELLS 36 180
4 0 3 12 9 
4 0 9 10 1 
4 9 12 13 10 
4 12 3 4 13 
4 0 1 4 3 
4 1 10 13 4 
4 1 10 11 2 
4 10 13 14 11 
4 13 4 5 14 
4 1 2 5 4 
4 2 11 14 5 
4 3 6 15 12 
4 12 15 16 13 
4 15 6 7 16 
4 3 4 7 6 
4 4 13 16 7 
4 13 16 17 14 
4 16 7 8 17 
4 4 5 8 7 
4 5 14 17 8 
4 9 12 21 18 
4 9 18 19 10 
4 18 21 22 19 
4 21 12 13 22 
4 10 19 22 13 
4 10 19 20 11 
4 19 22 23 20 
4 22 13 14 23 
4 11 20 23 14 
4 12 15 24 21 
4 21 24 25 22 
4 24 15 16 25 
4 13 22 25 16 
4 22 25 26 23 
4 25 16 17 26 
4 14 23 26 17 

CELL_TYPES 36
9 
9 
9 
9 
9 
9 
9 
9 
9 
9 
9 
9 
9 
9 
9 
9 
9 
9 
9 
9 
9 
9 
9 
9 
9 
9 
9 
9 
9 
9 
9 
9 
9 
9 
9 
9 
POINT_DATA 27
SCALARS GMDS_ID int 1
LOOKUP_TABLE default
0 1 2 3 4 5 6 7 8 9 10 11 12 13 14 15 16 17 18 19 20 21 22 23 24 25 26 
SCALARS geom_link_id_0 int 1
LOOKUP_TABLE default
1 4 4 12 5 9 5 8 8 3 1 1 4 0 2 7 6 5 2 2 3 11 3 10 6 6 7 


CELL_DATA 36
SCALARS GMDS_ID int 1
LOOKUP_TABLE default
0 1 2 3 4 5 6 7 8 9 10 11 12 13 14 15 16 17 18 19 20 21 22 23 24 25 26 27 28 29 30 31 32 33 34 35 

SCALARS geom_link_id_0 int 1
LOOKUP_TABLE default
4 1 0 0 5 0 1 0 0 5 2 4 0 6 5 0 0 6 5 2 4 1 3 0 0 1 3 0 2 4 3 6 0 3 6 2 

SCALARS BND_SURFACE_COLOR int 1
LOOKUP_TABLE default
1 2 0 0 3 0 2 0 0 3 4 1 0 5 3 0 0 5 3 4 1 2 6 0 0 2 6 0 4 1 6 5 0 6 5 4 

