# vtk DataFile Version 3.0
Generated by GMDS VTK Writer

ASCII
DATASET UNSTRUCTURED_GRID
POINTS 249 float
0.143378012795042 0.318952370573945 0.686705468360569
0.144243868953132 0.317006559861709 0.320802981505652
0.141209755369046 0.682381674427132 0.680733512756562
0.141352056622321 0.680925407356455 0.317258793306771
1.00307023068338 -0.0186027999911163 1.0186764573757
1.00332506844201 -0.0191521926688824 -0.0194986110720794
1.00315369812707 1.0191031452257 1.01911237975605
1.003408890952 1.01921500353214 -0.019485403390879
0.135133169348719 0.313036416126144 0.383555481409479
0.13311459375117 0.316421134898787 0.461779309804919
0.135398283003739 0.318544987753576 0.555066608219766
0.135447809539273 0.314857847399119 0.626869807570571
0.13466413933733 0.381219401298356 0.690693169938303
0.131626459092112 0.457813182533214 0.687289920065922
0.130781359086016 0.545461605343664 0.685793210827528
0.132777328041678 0.621291183260615 0.686701682718065
0.13310592252355 0.685729153188146 0.378049864447449
0.131371112383618 0.683224769189159 0.453070853606238
0.133071898549173 0.682187131481405 0.537554382358404
0.133598988511825 0.686120318745773 0.617283731480369
0.136484913873081 0.378563844764546 0.316634741233981
0.135315098986098 0.45353422338569 0.320594658263789
0.132413567014369 0.543288200378366 0.317371116084221
0.133544192000104 0.619760566743481 0.313494994281803
1.00453139495483 -0.014513101852684 0.19467602428873
0.999603286259102 -0.0144854718742329 0.401412694268441
1.00146310600236 -0.0159231968548586 0.599232587998288
1.00420478967694 -0.0139583463304082 0.805238744785676
1.00402915025454 0.195198271194463 1.01372723193589
1.00195464104023 0.401619515332032 1.01595786472542
1.00201785795504 0.599057911873054 1.01594003779989
1.00418127115666 0.805175904926213 1.01415763122839
1.00447351890374 1.01454897763189 0.194559571030075
1.00218608514198 1.01647721203239 0.400569582566317
1.00272562701543 1.0166423358603 0.59786301624359
1.00417486321474 1.01419048886758 0.805031263993043
1.00402232314805 0.194600177648086 -0.0142115483300422
1.00196280597275 0.401317907823565 -0.0150286151340632
1.00159680105169 0.59914124355259 -0.0149314870402058
1.00418542040467 0.805633061321573 -0.014427490760191
0.194575738442587 0.229459913942818 0.232395027451036
0.320765368013201 0.130946875414199 0.1352757951302
0.528157816826262 0.0781567703610252 0.0819691727521377
0.756760658602857 0.0219837889470551 0.0208943811717947
0.192974976891286 0.231199088119694 0.771396693286109
0.317857046586627 0.13183841934169 0.863918821316843
0.525818418678761 0.0803992737024826 0.916581004685479
0.755649309478778 0.0220941048579106 0.978096248795346
0.189676798666735 0.764579009280843 0.233278578962135
0.310429360945812 0.844651560125911 0.152656997041456
0.526988635468909 0.928830583510594 0.0689562896299046
0.757390295879464 0.979231445060306 0.0198028274671028
0.189646173054447 0.768459212271779 0.766749750313066
0.314528713588755 0.865118104052003 0.86342763571952
0.52411302987019 0.93290501220207 0.931775051774577
0.756254084404796 0.979502397018964 0.979349102932631
0.107209683836259 0.499988744612449 0.501723534624413
0.118867372598474 0.411857863010612 0.415692364165117
0.117693900287829 0.587141846183714 0.41211774096179
0.11826799100895 0.413217418921558 0.591876345630918
0.117331533377494 0.587857203886456 0.587410971582404
0.119066166387003 0.614621908954757 0.498415981807133
0.120319247102963 0.385440476405578 0.505038280142705
0.118873908220873 0.500847798234597 0.617278412131595
0.120045343187007 0.499195970672932 0.386857594269347
0.126172066038433 0.636362884097889 0.36227504218018
0.12821846697229 0.362224686529005 0.366409881299406
0.127488998755841 0.364204912223726 0.641970223368168
0.125947765042001 0.637244234376014 0.635936784044278
0.111782088415989 0.534310688020596 0.466224074709421
0.112196870069276 0.46524085493378 0.467967953436495
0.111909670664865 0.465745333554318 0.537387334088287
0.111565401998056 0.53471886143549 0.535534428182592
0.123182605009804 0.421160248970947 0.649942823291708
0.124147060048594 0.353638594695743 0.424154910042437
0.124812782408643 0.418750367064856 0.357111270931933
0.122529540782219 0.645577370794728 0.418374823091382
0.122164094968433 0.580832972745219 0.646753138350367
0.123012121520216 0.579473420945346 0.354219809788011
0.12285445286146 0.645705889266676 0.577530648766767
0.124412625943988 0.355145334945194 0.586464948716213
0.99999993783233 0.494091896593427 0.498373362790649
1.00001142319702 0.696494836455415 0.295902557043779
1.00001027497877 0.288572459992739 0.712152869739815
1.00000843182625 0.293127802463443 0.293181199992658
1.00001040735944 0.713762505543656 0.710332601379311
0.999881660276238 0.793164879989178 0.512716766106922
0.999914891903558 0.496601184266551 0.186560412040307
0.9999704764299 0.206733769446184 0.498179073975207
0.999904057829123 0.490103232145761 0.799281926863321
0.999734901571656 0.158302159500757 0.84196887366303
0.999719454653989 0.171185168244349 0.171536645373232
0.999728004978975 0.831665159480058 0.831492534687249
0.999715833007024 0.829749554476307 0.171021476950488
1.00000166538522 0.629397854002476 0.446621451859968
1.00000042059398 0.361006821671723 0.441432568141511
1.00000322744398 0.573975417022565 0.612767435243367
0.99986494894991 0.312015357328608 0.86822314366499
0.99988759655513 0.688084500193689 0.868875314488178
0.999869256283359 0.863289891071156 0.315358871301176
0.999920233962975 0.134560629700783 0.312464285566721
0.999868848583876 0.8677641356545 0.691969278445279
0.999894785333822 0.312450120031928 0.129314905030155
0.99987042943233 0.136303384897943 0.677015664876382
0.999868983905159 0.680725350855498 0.134053741764895
1 0.40339 0.593201
1 0.495317 0.360569
0.449428478718035 0.0175549918146103 0.505058263987646
0.220944401313345 0.152209418378602 0.350903870464313
0.220473689408289 0.153028361466417 0.652589712385308
0.670748445565203 0.0041870203955603 0.287040486045533
0.659358384619852 0.00467662720288474 0.714835124411703
0.396491435157244 0.0592163424469558 0.751325586521928
0.405985728836117 0.0570537683873057 0.243527296670767
0.181031539813303 0.218630636352162 0.505788869521905
0.738420553332372 0.000922198789904003 0.510821577316839
0.164557785219798 0.242606214076959 0.686618797223285
0.165172148098643 0.24026718842239 0.31967935535659
0.816459775171769 0.000916162326562282 0.162392708010811
0.808956508348083 0.000943607667776764 0.831528366199911
0.327411604547501 0.0752326141043228 0.572859366993976
0.333158735421912 0.0717928997808536 0.430923271277882
0.539147255896658 0.0110853997074948 0.42278955343047
0.513316672741288 0.0135042671464708 0.5949454431763
0.851260247560911 0.000312435678638203 0.313499267651445
0.24382974008947 0.136938378084903 0.232899405943411
0.151840307540444 0.251451051600455 0.401930741426658
0.241118200484581 0.139042146236191 0.767537378755479
0.152442285346414 0.253328148205058 0.608710939675885
0.849207320991099 0.000323093051254955 0.689892611867283
0.642813000751319 0.0109551259908916 0.855552216238574
0.651096356857761 0.0103500753910729 0.141597773475025
0.449267620614105 0.982389821609337 0.504125662444668
0.219360487515398 0.846134175192808 0.347090605442159
0.219237083053475 0.847223257205361 0.646357225008178
0.670598217325807 0.995561902869089 0.287064388782516
0.659283304637734 0.995448490602675 0.714882278167816
0.395610534352052 0.941540562483187 0.750968772132016
0.404079359223016 0.939584688821342 0.244129337810626
0.179489402751672 0.781265336918822 0.496749651318484
0.738405481788883 0.999067259893991 0.510797534455276
0.162668358531381 0.757980703636704 0.679470693070634
0.162715310149227 0.757335470418346 0.316213252782519
0.816463709386133 0.999124145741615 0.162339405994121
0.808962963876236 0.999130058235251 0.831598707543399
0.326793578485992 0.924827355714493 0.569370049450342
0.332450758546649 0.927682832742468 0.427942864727691
0.538932774456742 0.988588118271484 0.422498208649714
0.513165083271842 0.986559047273313 0.594446083972847
0.851238571591238 0.99966645905457 0.313507402218772
0.240575950287879 0.857251747088284 0.234309019597844
0.150095235411857 0.747568840719148 0.39547530825934
0.23940937567216 0.860684595831852 0.763962114200494
0.15067055662782 0.747257951227069 0.59767817210436
0.84919698561688 0.999671891278819 0.689906479006853
0.642606636474029 0.99042532922232 0.857041528304303
0.650846089436601 0.990225498182945 0.140396881286076
0.44043877935393 0.490870118726559 0.0191084795342213
0.627748779873873 0.301422977398912 0.00575788483843205
0.219102414739489 0.650747981180639 0.152940188949679
0.242268674639199 0.353151052774953 0.14173492420613
0.660788291010694 0.715203178843134 0.00471295924854653
0.73609402084921 0.513308495672591 0.000721447003765893
0.407013584146294 0.214380463534293 0.0563048038936253
0.181745422680316 0.502092327945181 0.21782504649722
0.397772775037735 0.752413882157367 0.0606719416922634
0.162712893793809 0.681251363388502 0.242005333847816
0.168961276452172 0.316234664097293 0.241778532040771
0.803456181345212 0.172497799596545 0.000953859698288762
0.809135113303459 0.831627621075068 0.000866605805172811
0.572758877933133 0.452402384238376 0.00396812835284969
0.309416557855707 0.454921690992252 0.0759956989844414
0.519100783118635 0.596220524847028 0.0126702331384088
0.23954343862288 0.76271599258945 0.141971551710712
0.644096949079462 0.857614875550261 0.00985771581122304
0.841651639496333 0.318142834160661 0.000327396959982379
0.155943243692621 0.39788126736794 0.252935937391481
0.848649354468646 0.690073647824581 0.000316874603744741
0.24952967774568 0.227975389177212 0.136714438896257
0.150751410561581 0.60221728477403 0.251724270214175
0.639643440684924 0.141956570382717 0.0109325430228401
0.325235924848555 0.574306803976712 0.0735119339302359
0.421914008501723 0.370801562694665 0.032299183515053
0.440119248105856 0.491256911246793 0.981492500633432
[...]
POINT_DATA 249
SCALARS GMDS_ID int 1
LOOKUP_TABLE default
0 1 2 3 4 5 6 7 8 9 10 11 12 13 14 15 16 17 18 19 20 21 22 23 24 25 26 27 28 29 30 31 32 33 34 35 36 37 38 39 40 41 42 43 44 45 46 47 48 49 50 51 52 53 54 55 56 57 58 59 60 61 62 63 64 65 66 67 68 69 70 71 72 73 74 75 76 77 78 79 80 81 82 83 84 85 86 87 88 89 90 91 92 93 94 95 96 97 98 99 100 101 102 103 104 105 106 107 108 109 110 111 112 113 114 115 116 117 118 119 120 121 122 123 124 125 126 127 128 129 130 131 132 133 134 135 136 137 138 139 140 141 142 143 144 145 146 147 148 149 150 151 152 153 154 155 156 157 158 159 160 161 162 163 164 165 166 167 168 169 170 171 172 173 174 175 176 177 178 179 180 181 182 183 184 185 186 187 188 189 190 191 192 193 194 195 196 197 198 199 200 201 202 203 204 205 206 207 208 209 210 211 212 213 214 215 216 217 218 219 220 221 222 223 224 225 226 227 228 229 230 231 232 233 234 235 236 237 238 239 240 241 242 243 244 245 246 247 248 
SCALARS BND_VERTEX_COLOR int 1
LOOKUP_TABLE default
1 2 3 4 5 6 7 8 0 0 0 0 0 0 0 0 0 0 0 0 0 0 0 0 0 0 0 0 0 0 0 0 0 0 0 0 0 0 0 0 0 0 0 0 0 0 0 0 0 0 0 0 0 0 0 0 0 0 0 0 0 0 0 0 0 0 0 0 0 0 0 0 0 0 0 0 0 0 0 0 0 0 0 0 0 0 0 0 0 0 0 0 0 0 0 0 0 0 0 0 0 0 0 0 0 0 0 0 0 0 0 0 0 0 0 0 0 0 0 0 0 0 0 0 0 0 0 0 0 0 0 0 0 0 0 0 0 0 0 0 0 0 0 0 0 0 0 0 0 0 0 0 0 0 0 0 0 0 0 0 0 0 0 0 0 0 0 0 0 0 0 0 0 0 0 0 0 0 0 0 0 0 0 0 0 0 0 0 0 0 0 0 0 0 0 0 0 0 0 0 0 0 0 0 0 0 0 0 0 0 0 0 0 0 0 0 0 0 0 0 0 0 0 0 0 0 0 0 0 0 0 0 0 0 0 0 0 0 0 0 0 0 0 0 0 0 0 0 0 
SCALARS BND_SURFACE_COLOR int 1
LOOKUP_TABLE default
0 0 0 0 0 0 0 0 0 0 0 0 0 0 0 0 0 0 0 0 0 0 0 0 0 0 0 0 0 0 0 0 0 0 0 0 0 0 0 0 0 0 0 0 0 0 0 0 0 0 0 0 0 0 0 0 4 4 4 4 4 4 4 4 4 4 4 4 4 4 4 4 4 4 4 4 4 4 4 4 4 2 2 2 2 2 2 2 2 2 2 2 2 2 2 2 2 2 2 2 2 2 2 2 2 2 2 6 6 6 6 6 6 6 6 6 6 6 6 6 6 6 6 6 6 6 6 6 6 6 6 6 3 3 3 3 3 3 3 3 3 3 3 3 3 3 3 3 3 3 3 3 3 3 3 3 3 5 5 5 5 5 5 5 5 5 5 5 5 5 5 5 5 5 5 5 5 5 5 5 5 5 5 1 1 1 1 1 1 1 1 1 1 1 1 1 1 1 1 1 1 1 1 1 1 1 1 1 1 0 0 0 0 0 0 0 0 0 0 0 0 0 0 0 0 0 0 0 0 0 0 0 0 0 0 0 0 0 0 0 0 0 0 0 0 0 0 0 0 
SCALARS BND_CURVE_COLOR int 1
LOOKUP_TABLE default
0 0 0 0 0 0 0 0 10 10 10 10 1 1 1 1 9 9 9 9 5 5 5 5 2 2 2 2 4 4 4 4 3 3 3 3 8 8 8 8 11 11 11 11 12 12 12 12 7 7 7 7 6 6 6 6 0 0 0 0 0 0 0 0 0 0 0 0 0 0 0 0 0 0 0 0 0 0 0 0 0 0 0 0 0 0 0 0 0 0 0 0 0 0 0 0 0 0 0 0 0 0 0 0 0 0 0 0 0 0 0 0 0 0 0 0 0 0 0 0 0 0 0 0 0 0 0 0 0 0 0 0 0 0 0 0 0 0 0 0 0 0 0 0 0 0 0 0 0 0 0 0 0 0 0 0 0 0 0 0 0 0 0 0 0 0 0 0 0 0 0 0 0 0 0 0 0 0 0 0 0 0 0 0 0 0 0 0 0 0 0 0 0 0 0 0 0 0 0 0 0 0 0 0 0 0 0 0 0 0 0 0 0 0 0 0 0 0 0 0 0 0 0 0 0 0 0 0 0 0 0 0 0 0 0 0 0 0 0 0 0 0 0 0 0 0 0 0 0 


