# vtk DataFile Version 3.0
Generated by GMDS VTK Writer

ASCII
DATASET UNSTRUCTURED_GRID
POINTS 467 float
4 0 0
0 0 0
0 1 0
0 2 0
4 2 0
4 1 0
2 1 0
1.5 1 0
2.5 1 0
4.5 1 0
3.5 1 0
0.5 1 0
-0.5 1 0
0.173913 2 0
0.347826 2 0
0.521739 2 0
0.695652 2 0
0.869565 2 0
1.04348 2 0
1.21739 2 0
1.3913 2 0
1.56522 2 0
1.73913 2 0
1.91304 2 0
2.08696 2 0
2.26087 2 0
2.43478 2 0
2.6087 2 0
2.78261 2 0
2.95652 2 0
3.13043 2 0
3.30435 2 0
3.47826 2 0
3.65217 2 0
3.82609 2 0
3.82609 0 0
3.65217 0 0
3.47826 0 0
3.30435 0 0
3.13043 0 0
2.95652 0 0
2.78261 0 0
2.6087 0 0
2.43478 0 0
2.26087 0 0
2.08696 0 0
1.91304 0 0
1.73913 0 0
1.56522 0 0
1.3913 0 0
1.21739 0 0
1.04348 0 0
0.869565 0 0
0.695652 0 0
0.521739 0 0
0.347826 0 0
0.173913 0 0
4.17365 0.0151922 0
4.34202 0.0603074 0
4.5 0.133975 0
4.64279 0.233956 0
4.76604 0.357212 0
4.86603 0.5 0
4.93969 0.65798 0
4.98481 0.826352 0
5 1 0
4.98481 1.17365 0
4.93969 1.34202 0
4.86603 1.5 0
4.76604 1.64279 0
4.64279 1.76604 0
4.5 1.86603 0
4.34202 1.93969 0
4.17365 1.98481 0
-0.173648 1.98481 0
-0.34202 1.93969 0
-0.5 1.86603 0
-0.642788 1.76604 0
-0.766044 1.64279 0
-0.866025 1.5 0
-0.939693 1.34202 0
-0.984808 1.17365 0
-1 1 0
-0.984808 0.826352 0
-0.939693 0.65798 0
-0.866025 0.5 0
-0.766044 0.357212 0
-0.642788 0.233956 0
-0.5 0.133975 0
-0.34202 0.0603074 0
-0.173648 0.0151922 0
-0.469846 0.82899 0
-0.383022 0.678606 0
-0.25 0.566987 0
-0.0868241 0.507596 0
0.0868241 0.507596 0
0.25 0.566987 0
0.383022 0.678606 0
0.469846 0.82899 0
0.469846 1.17101 0
0.383022 1.32139 0
0.25 1.43301 0
0.0868241 1.4924 0
-0.0868241 1.4924 0
-0.25 1.43301 0
-0.383022 1.32139 0
-0.469846 1.17101 0
1.53015 0.82899 0
1.61698 0.678606 0
1.75 0.566987 0
1.91318 0.507596 0
2.08682 0.507596 0
2.25 0.566987 0
2.38302 0.678606 0
2.46985 0.82899 0
2.46985 1.17101 0
2.38302 1.32139 0
2.25 1.43301 0
2.08682 1.4924 0
1.91318 1.4924 0
1.75 1.43301 0
1.61698 1.32139 0
1.53015 1.17101 0
3.53015 0.82899 0
3.61698 0.678606 0
3.75 0.566987 0
3.91318 0.507596 0
4.08682 0.507596 0
4.25 0.566987 0
4.38302 0.678606 0
4.46985 0.82899 0
4.46985 1.17101 0
4.38302 1.32139 0
4.25 1.43301 0
4.08682 1.4924 0
3.91318 1.4924 0
3.75 1.43301 0
3.61698 1.32139 0
3.53015 1.17101 0
3 0.582876 0
1.00713 1.39394 0
3 1.41712 0
1.00713 0.606056 0
2.95586 1.00958 0
0.955858 1.00958 0
2.66599 0.40075 0
1.32161 1.58455 0
2.66599 1.59925 0
1.32161 0.41545 0
3.33169 0.36928 0
0.666381 1.63716 0
3.33169 1.63072 0
0.666381 0.362839 0
3.22886 0.852142 0
1.23681 0.870637 0
1.23681 1.12936 0
3.22886 1.14786 0
2.37923 0.289435 0
1.61385 1.71242 0
2.37923 1.71057 0
1.61385 0.287585 0
3.02707 0.274896 0
0.95095 1.72373 0
3.02707 1.7251 0
0.95095 0.276272 0
0.366412 1.70629 0
3.62924 0.290508 0
3.62924 1.70949 0
0.366412 0.293711 0
0.758601 1.22338 0
2.7586 1.22338 0
2.74882 0.758686 0
0.748817 0.758692 0
2 1.72826 0
2 0.271742 0
0.00584095 1.74345 0
3.99441 1.74331 0
0.00559035 0.25669 0
3.99416 0.256552 0
4.7194 0.876594 0
4.6357 1.36399 0
-0.719401 1.12341 0
-0.635697 0.636005 0
4.46657 0.438683 0
-0.466573 1.56132 0
4.24865 1.68638 0
-0.248652 0.313616 0
4.2481 0.309651 0
-0.248103 1.69035 0
-0.636778 1.36421 0
4.63678 0.635789 0
4.72191 1.13031 0
-0.721911 0.869689 0
4.4758 1.55943 0
-0.475803 0.440569 0
1.36001 0.659562 0
1.36001 1.34044 0
3.37182 0.661019 0
3.37182 1.33898 0
2.83257 0.258058 0
1.18097 1.77113 0
2.83257 1.74194 0
1.18097 0.228868 0
2.59258 1.39473 0
2.59258 0.605272 0
0.592545 1.39454 0
0.592545 0.605462 0
2.72734 1.04259 0
0.727338 1.04259 0
2.98808 0.795044 0
0.985457 1.20311 0
0.980668 0.804149 0
2.98807 1.21881 0
3.22811 0.207235 0
0.770589 1.79188 0
3.22811 1.79276 0
0.770589 0.208122 0
1.53624 0.483237 0
1.53624 1.51676 0
3.53427 0.485176 0
3.53427 1.51482 0
2.56145 0.204216 0
1.43855 1.79578 0
2.56145 1.79578 0
1.43855 0.204216 0
2.76176 0.518589 0
2.76176 1.48141 0
0.776673 1.47463 0
0.776673 0.525371 0
1.16333 0.430043 0
1.16333 1.56996 0
3.44102 0.211348 0
0.557248 0.212844 0
3.44102 1.78865 0
0.557248 1.78716 0
2.19857 0.177374 0
1.80072 1.82281 0
2.19857 1.82263 0
1.80072 0.177185 0
3.21674 0.541804 0
3.21674 1.4582 0
3.81808 1.78881 0
0.181605 0.211426 0
0.181624 1.78858 0
3.81806 0.211183 0
2.4327 0.484088 0
2.4367 1.48322 0
0.462063 1.48855 0
0.448147 0.481074 0
3.27538 1 0
1.28659 1 0
3.14419 1.0016 0
1.14871 1.0016 0
1.1861 0.63335 0
1.1861 1.36665 0
2.90201 0.400422 0
2.90201 1.59958 0
2.20892 0.373399 0
1.77206 1.62025 0
2.20892 1.6266 0
1.77206 0.379754 0
0.214122 1.61952 0
0.214122 0.380482 0
3.78588 1.61952 0
3.78588 0.380482 0
2.6384 0.880399 0
0.638396 0.880418 0
3.13244 0.695649 0
3.13244 1.30495 0
4.10635 1.82121 0
-0.106345 0.178786 0
0.825305 0.361945 0
0.825305 1.63806 0
-0.105578 1.82228 0
4.10558 0.177716 0
4.38551 0.267404 0
-0.38551 1.7326 0
-0.75562 1.26644 0
4.75562 0.73356 0
-0.649327 1.51123 0
4.64933 0.488772 0
4.8272 1.03244 0
-0.827202 0.967564 0
4.76267 1.27833 0
-0.762675 0.721672 0
4.62 1.50887 0
-0.619997 0.491134 0
1.36697 0.806584 0
1.36697 1.19342 0
3.36697 0.806738 0
3.36697 1.19326 0
4.4367 1.70195 0
-0.436698 0.298053 0
3.17778 1.63351 0
3.17778 0.366492 0
1.65217 0.13456 0
2.34783 1.86544 0
2.34783 0.13456 0
1.65217 1.86544 0
2.82504 0.862225 0
0.823802 0.863747 0
3.04518 0.127919 0
0.956522 1.86991 0
3.04518 1.87208 0
0.956522 0.130094 0
0.415609 1.87638 0
3.58318 0.122685 0
3.58318 1.87732 0
0.415609 0.123624 0
0.609906 1.21231 0
2.60992 1.21235 0
2.71486 0.136526 0
1.28018 1.86463 0
2.71486 1.86347 0
1.28018 0.135372 0
1.28715 0.530352 0
1.28715 1.46965 0
3.05786 0.436079 0
3.05786 1.56392 0
4.09351 1.65363 0
-0.0935066 0.346374 0
-0.0925973 1.65409 0
4.0926 0.345912 0
4.33173 1.56284 0
-0.331731 0.437163 0
4.32098 0.431045 0
-0.320985 1.56896 0
4.65322 1.0065 0
4.61188 1.22292 0
-0.653222 0.993504 0
4.61077 0.778172 0
-0.611876 0.777085 0
4.50284 0.58364 0
-0.610775 1.22183 0
-0.502841 1.41636 0
0.967844 1.58075 0
0.967844 0.419252 0
4.4983 1.41784 0
-0.4983 0.582158 0
2.52909 0.354096 0
2.52943 1.64312 0
2.85943 1.13566 0
0.860565 1.14156 0
2.85415 0.691201 0
0.849912 1.29948 0
2.84648 1.3061 0
0.855749 0.696035 0
0.514214 1.6371 0
0.509327 0.357476 0
3.48614 0.344654 0
3.48614 1.65535 0
1.43742 1.63874 0
1.43742 0.361263 0
0.0605494 1.86993 0
3.9395 1.86985 0
3.93943 0.130057 0
0.0604739 0.130163 0
2.58537 0.746844 0
2 1.61582 0
2 0.384179 0
0.585343 0.746948 0
1.99993 0.155032 0
1.99993 1.84497 0
1.67277 0.449448 0
1.67277 1.55055 0
3.66496 0.473034 0
3.66496 1.52697 0
1.497 1.38618 0
1.497 0.613819 0
3.92852 1.62894 0
0.0714651 0.37107 0
0.0715162 1.62896 0
3.92847 0.371033 0
3.49672 0.615627 0
3.49672 1.38437 0
2.90797 0.126563 0
1.09562 1.863 0
2.90797 1.87344 0
1.09562 0.137001 0
1.40657 1.48939 0
1.40657 0.510614 0
3.40532 0.506007 0
3.40532 1.49399 0
2.69042 0.263736 0
1.30536 1.71331 0
2.69042 1.73626 0
1.30536 0.286688 0
4.54324 0.32093 0
-0.543244 1.67907 0
-0.859714 1.13093 0
4.85971 0.869072 0
4.76309 1.41707 0
-0.763086 0.582928 0
4.27862 1.82378 0
-0.278617 0.176219 0
4.25097 0.166054 0
-0.250972 1.83395 0
-0.769489 1.39678 0
4.76949 0.60322 0
-0.849122 0.813065 0
4.84912 1.18694 0
1.08368 1.68418 0
1.08368 0.315824 0
4.58827 1.63582 0
-0.588266 0.364185 0
2.50702 1.30022 0
0.509965 1.29443 0
3.25843 0.717747 0
3.25843 1.28225 0
3.34248 0.123734 0
0.657523 0.123734 0
3.34248 1.87627 0
0.657523 1.87627 0
2.57039 0.478489 0
2.57963 1.5199 0
0.602375 1.5264 0
0.588032 0.470573 0
3.71518 1.88843 0
0.284819 0.111567 0
3.71518 0.111567 0
0.284819 1.88843 0
2.30861 1.5466 0
2.30861 0.453399 0
4.59065 0.89805 0
-0.590649 1.10195 0
4.38468 0.539792 0
-0.384684 1.46021 0
4.51603 1.29747 0
-0.516033 0.702529 0
4.20214 1.56565 0
-0.202143 0.434347 0
2.77569 0.356812 0
2.77569 1.64319 0
-0.199639 1.56214 0
4.19964 0.437865 0
4.51621 0.703136 0
-0.51621 1.29686 0
4.58305 1.10376 0
-0.58305 0.896238 0
0.328401 1.5217 0
0.322179 0.469525 0
-0.384368 0.544847 0
4.38437 1.45515 0
3.0881 0.878184 0
1.08651 0.888256 0
1.08747 1.11767 0
3.0881 1.12182 0
1.52889 0.118855 0
2.47111 1.88114 0
1.52889 1.88114 0
2.47111 0.118855 0
1.11932 0.755392 0
1.11981 1.24573 0
1.25384 0.745105 0
1.25394 1.25512 0
2.10882 0.295405 0
1.88187 1.71028 0
1.88187 0.289722 0
2.10882 1.7046 0
2.70977 0.652187 0
2.71306 1.33406 0
0.715676 1.33211 0
0.711444 0.653408 0
1.39516 0.927259 0
1.397 1.07386 0
3.38961 0.926385 0
3.39237 1.07446 0

CELLS 796 3184
3 38 409 39 
3 410 53 52 
3 411 31 30 
3 16 412 17 
3 195 107 287 
3 196 288 122 
3 197 123 289 
3 198 290 138 
3 368 107 195 
3 367 196 122 
3 373 123 197 
3 374 198 138 
3 409 213 39 
3 216 410 52 
3 215 411 30 
3 412 214 17 
3 209 299 343 
3 211 300 346 
3 149 213 231 
3 150 214 234 
3 151 233 215 
3 152 232 216 
3 204 413 225 
3 203 226 414 
3 145 225 413 
3 147 414 226 
3 205 227 415 
3 206 416 228 
3 150 415 227 
3 152 228 416 
3 171 343 299 
3 172 346 300 
3 113 245 204 
3 97 248 206 
3 39 213 301 
3 52 304 216 
3 17 214 302 
3 30 303 215 
3 4 354 269 
3 1 356 270 
3 108 217 363 
3 121 364 218 
3 142 229 253 
3 140 254 230 
3 148 229 386 
3 146 384 230 
3 202 386 229 
3 200 230 384 
3 108 363 109 
3 120 364 121 
3 161 255 199 
3 163 201 256 
3 3 273 353 
3 0 274 355 
3 203 405 310 
3 439 101 100 
3 96 440 97 
3 205 406 309 
3 141 256 226 
3 139 225 255 
3 116 405 246 
3 203 246 405 
3 460 203 310 
3 461 205 309 
3 143 299 209 
3 144 300 211 
3 161 199 375 
3 163 377 201 
3 124 219 365 
3 137 366 220 
3 46 238 47 
3 24 237 25 
3 22 236 23 
3 44 235 45 
3 100 406 247 
3 205 247 406 
3 206 228 462 
3 205 461 227 
3 4 269 73 
3 1 270 90 
3 204 225 459 
3 203 460 226 
3 247 439 100 
3 440 248 97 
3 58 275 395 
3 75 276 396 
3 62 398 280 
3 79 397 279 
3 66 400 281 
3 83 399 282 
3 59 275 58 
3 76 276 75 
3 78 79 279 
3 61 62 280 
3 65 66 281 
3 82 83 282 
3 113 204 357 
3 97 206 360 
3 124 365 125 
3 136 366 137 
3 422 112 111 
3 117 421 118 
3 3 74 273 
3 0 57 274 
3 161 301 213 
3 164 216 304 
3 163 215 303 
3 162 302 214 
3 257 422 111 
3 421 259 118 
3 46 361 238 
3 24 362 237 
3 23 236 362 
3 45 235 361 
3 87 88 292 
3 70 71 291 
3 87 292 404 
[...]
POINT_DATA 467
SCALARS GMDS_ID int 1
LOOKUP_TABLE default
0 1 2 3 4 5 6 7 8 9 10 11 12 13 14 15 16 17 18 19 20 21 22 23 24 25 26 27 28 29 30 31 32 33 34 35 36 37 38 39 40 41 42 43 44 45 46 47 48 49 50 51 52 53 54 55 56 57 58 59 60 61 62 63 64 65 66 67 68 69 70 71 72 73 74 75 76 77 78 79 80 81 82 83 84 85 86 87 88 89 90 91 92 93 94 95 96 97 98 99 100 101 102 103 104 105 106 107 108 109 110 111 112 113 114 115 116 117 118 119 120 121 122 123 124 125 126 127 128 129 130 131 132 133 134 135 136 137 138 139 140 141 142 143 144 145 146 147 148 149 150 151 152 153 154 155 156 157 158 159 160 161 162 163 164 165 166 167 168 169 170 171 172 173 174 175 176 177 178 179 180 181 182 183 184 185 186 187 188 189 190 191 192 193 194 195 196 197 198 199 200 201 202 203 204 205 206 207 208 209 210 211 212 213 214 215 216 217 218 219 220 221 222 223 224 225 226 227 228 229 230 231 232 233 234 235 236 237 238 239 240 241 242 243 244 245 246 247 248 249 250 251 252 253 254 255 256 257 258 259 260 261 262 263 264 265 266 267 268 269 270 271 272 273 274 275 276 277 278 279 280 281 282 283 284 285 286 287 288 289 290 291 292 293 294 295 296 297 298 299 300 301 302 303 304 305 306 307 308 309 310 311 312 313 314 315 316 317 318 319 320 321 322 323 324 325 326 327 328 329 330 331 332 333 334 335 336 337 338 339 340 341 342 343 344 345 346 347 348 349 350 351 352 353 354 355 356 357 358 359 360 361 362 363 364 365 366 367 368 369 370 371 372 373 374 375 376 377 378 379 380 381 382 383 384 385 386 387 388 389 390 391 392 393 394 395 396 397 398 399 400 401 402 403 404 405 406 407 408 409 410 411 412 413 414 415 416 417 418 419 420 421 422 423 424 425 426 427 428 429 430 431 432 433 434 435 436 437 438 439 440 441 442 443 444 445 446 447 448 449 450 451 452 453 454 455 456 457 458 459 460 461 462 463 464 465 466 
SCALARS angle float 1
LOOKUP_TABLE default
0.174533 6.10865 0 0.174533 6.10865 0 0 6.28319 6.28319 6.28319 6.28319 6.28319 6.28319 0 0 0 0 0 0 0 0 0 0 0 0 0 0 0 0 0 0 0 0 0 0 0 0 0 0 0 0 0 0 0 0 0 0 0 0 0 0 0 0 0 0 0 0 0.698132 1.39626 2.0944 2.79253 3.49066 4.18879 4.88692 5.58505 6.28319 0.698132 1.39626 2.0944 2.79253 3.49066 4.18879 4.88692 5.58505 0.698132 1.39626 2.0944 2.79253 3.49066 4.18879 4.88692 5.58505 6.28319 0.698132 1.39626 2.0944 2.79253 3.49066 4.18879 4.88692 5.58505 1.39626 2.79253 4.18879 5.58505 0.698132 2.0944 3.49066 4.88692 1.39626 2.79253 4.18879 5.58505 0.698132 2.0944 3.49066 4.88692 1.39626 2.79253 4.18879 5.58505 0.698132 2.0944 3.49066 4.88692 1.39626 2.79253 4.18879 5.58505 0.698132 2.0944 3.49066 4.88692 1.39626 2.79253 4.18879 5.58505 0.698132 2.0944 3.49066 4.88692 1.39626 2.79253 4.18879 5.58505 0.698132 2.0944 3.49066 4.88692 6.24656 0.0176203 0.0209571 6.26627 6.26259 6.26397 6.24248 6.20654 0.0394301 0.0806509 6.25161 0.0858518 0.0289978 6.26507 0.283327 0.263867 6.02088 5.9969 0.431382 0.320918 5.81442 5.96512 6.27327 0.0192516 0.00662052 6.27445 5.84615 5.87752 0.397969 0.42659 0.729911 0.581109 5.66865 5.55557 6.21424 0.0707743 0.10124 6.15959 6.16026 0.0964622 5.48913 2.19174 5.48907 2.19192 2.9122 2.91232 4.83764 4.83156 1.48983 1.49685 3.94553 3.94573 0.999024 0.999092 3.3437 3.34329 1.23852 5.03683 1.30239 4.97864 6.27178 0.000570395 0.00841597 0.00237518 1.23142 5.24388 1.7578 4.73696 0.0645205 0.0732033 6.21863 0.0389707 6.20774 0.0283893 6.26949 0.0150123 0.0122855 6.28128 5.37874 0.922088 5.09874 1.18195 0.0638068 0.043841 6.21229 6.24082 6.06687 0.219846 0.332896 6.02311 0.0663736 6.22149 6.20524 0.0560106 0.0763545 6.24845 0.209263 0.0784534 6.07288 6.20569 0.180378 6.09501 0.0959537 0.101263 6.17828 6.17429 0.428233 5.52743 3.20251 2.33999 0.00154205 0.00261268 6.27486 6.27704 0.278072 6.00147 6.23936 0.0383848 0.714375 0.506915 5.57633 5.77907 5.59775 0.696688 0.607509 5.66086 5.37142 5.28437 0.178123 6.08878 5.75521 5.7527 6.23939 0.0707143 0.514399 0.508754 2.01444 2.01619 4.77669 4.77682 3.53198 3.53211 0.224156 0.224169 1.48647 1.48656 2.72794 2.72804 0.797343 5.50077 0.801283 5.50139 4.0681 4.06706 6.27379 0.00552167 6.19234 6.10387 0.170741 0.091771 5.97529 5.92815 6.27737 0.00738769 0.00436171 6.28085 6.20798 6.1919 0.0888619 0.0810476 1.44905 1.32457 0.00700169 0.00498522 6.27458 6.27916 0.329347 5.95429 6.28136 6.27782 5.72254 5.71823 0.569353 0.55988 3.93986 3.93802 2.29366 2.29533 0.185835 1.65544 0.185858 4.55448 1.65553 3.47924 4.55436 3.47905 0.0354353 6.26091 2.79702 2.79708 0.129898 6.1298 0.162581 0.205154 5.99057 0.373888 0.293767 5.94635 6.16273 0.23021 6.02921 0.250647 0.0855903 6.2019 0.106454 6.16849 0.103443 6.16828 5.07643 6.23921 0.0451951 4.98234 0.0366175 6.24735 4.65145 1.63424 4.56567 1.71478 3.6265 2.652 0.374565 0.388977 5.88161 5.88923 2.68051 3.60121 6.27987 0.00223155 0.00200194 0.000219175 5.73255 0.548049 0.25575 6.02322 0.00960665 0.0016211 6.26958 0.00106988 2.51551 2.51594 6.01562 6.01563 1.773 1.77316 5.26669 5.26381 0.937552 0.941448 4.45857 4.4587 1.1742 1.17415 6.27986 0.00952702 3.07668 3.07662 1.97833 2.00334 0.548361 5.73242 6.26416 0.0103576 0.0183858 6.27997 6.15497 0.169495 0.648515 6.05474 0.0669742 0.0651947 6.21179 6.21877 4.7873 1.5017 5.04246 5.04241 3.22491 3.22474 2.5376 2.53766 4.44759 4.44354 6.24623 0.0333219 1.87143 1.8674 3.70478 3.70468 1.27142 1.27146 4.30757 1.86305 3.04922 3.04929 0.0563464 0.0550818 6.20618 6.2024 6.24442 6.2114 0.0394145 0.0671677 0.173776 6.0969 0.535524 5.7473 0.289371 0.11153 6.17312 5.99744 5.64625 0.709722 0.98789 5.46668 0.139473 6.14988 0.152612 6.13924 
VECTORS cross_X float
0.999048 0.0436194 0 0.0436194 0.999048 0 1 0 0 0.999048 0.0436194 0 0.0436194 0.999048 0 1 0 0 1 0 0 5.14983e-13 1 0 5.16759e-13 1 0 4.53254e-13 1 0 5.66053e-13 1 0 5.18313e-13 1 0 5.06545e-13 1 0 1 0 0 1 0 0 1 0 0 1 0 0 1 0 0 1 0 0 1 0 0 1 0 0 1 0 0 1 0 0 1 0 0 1 0 0 1 0 0 1 0 0 1 0 0 1 0 0 1 0 0 1 0 0 1 0 0 1 0 0 1 0 0 1 0 0 1 0 0 1 0 0 1 0 0 1 0 0 1 0 0 1 0 0 1 0 0 1 0 0 1 0 0 1 0 0 1 0 0 1 0 0 1 0 0 1 0 0 1 0 0 1 0 0 1 0 0 1 0 0 1 0 0 1 0 0 1 0 0 1 0 0 0.984808 0.173648 0 0.939693 0.34202 0 0.866025 0.5 0 0.766044 0.642788 0 0.642788 0.766044 0 0.5 0.866025 0 0.34202 0.939693 0 0.173648 0.984808 0 2.76763e-12 1 0 0.984808 0.173648 0 0.939693 0.34202 0 0.866025 0.5 0 0.766044 0.642788 0 0.642788 0.766044 0 0.5 0.866025 0 0.34202 0.939693 0 0.173648 0.984808 0 0.984808 0.173648 0 0.939693 0.34202 0 0.866025 0.5 0 0.766044 0.642788 0 0.642788 0.766044 0 0.5 0.866025 0 0.34202 0.939693 0 0.173648 0.984808 0 3.64181e-12 1 0 0.984808 0.173648 0 0.939693 0.34202 0 0.866025 0.5 0 0.766044 0.642788 0 0.642788 0.766044 0 0.5 0.866025 0 0.34202 0.939693 0 0.173648 0.984808 0 0.939693 0.34202 0 0.766044 0.642788 0 0.5 0.866025 0 0.173648 0.984808 0 0.984808 0.173648 0 0.866025 0.5 0 0.642788 0.766044 0 0.34202 0.939693 0 0.939693 0.34202 0 0.766044 0.642788 0 0.5 0.866025 0 0.173648 0.984808 0 0.984808 0.173648 0 0.866025 0.5 0 0.642788 0.766044 0 0.34202 0.939693 0 0.939693 0.34202 0 0.766044 0.642788 0 0.5 0.866025 0 0.173648 0.984808 0 0.984808 0.173648 0 0.866025 0.5 0 0.642788 0.766044 0 0.34202 0.939693 0 0.939693 0.34202 0 0.766044 0.642788 0 0.5 0.866025 0 0.173648 0.984808 0 0.984808 0.173648 0 0.866025 0.5 0 0.642788 0.766044 0 0.34202 0.939693 0 0.939693 0.34202 0 0.766044 0.642788 0 0.5 0.866025 0 0.173648 0.984808 0 0.984808 0.173648 0 0.866025 0.5 0 0.642788 0.766044 0 0.34202 0.939693 0 0.939693 0.34202 0 0.766044 0.642788 0 0.5 0.866025 0 0.173648 0.984808 0 0.984808 0.173648 0 0.866025 0.5 0 0.642788 0.766044 0 0.34202 0.939693 0 0.00915668 0.999958 0 0.99999 0.00440505 0 0.999986 0.00523925 0 0.00422844 0.999991 0 0.00514893 0.999987 0 0.00480444 0.999988 0 0.0101768 0.999948 0 0.0191603 0.999816 0 0.999951 0.00985737 0 0.999797 0.0201614 0 0.00789413 0.999969 0 0.99977 0.0214613 0 0.999974 0.00724939 0 0.00452825 0.99999 0 0.997492 0.0707725 0 0.997825 0.065919 0 0.0655297 0.997851 0 0.0715104 0.99744 0 0.99419 0.107637 0 0.996783 0.0801436 0 0.116924 0.993141 0 0.0794328 0.99684 0 0.00247871 0.999997 0 0.999988 0.00481288 0 0.999999 0.00165513 0 0.00218259 0.999998 0 0.109043 0.994037 0 0.101242 0.994862 0 0.995055 0.0993283 0 0.994319 0.106446 0 0.983397 0.181467 0 0.989466 0.144767 0 0.153029 0.988222 0 0.180901 0.983501 0 0.0172357 0.999851 0 0.999843 0.0176927 0 0.99968 0.0253073 0 0.0308939 0.999523 0 0.0307271 0.999528 0 0.999709 0.0241132 0 0.197213 0.980361 0 0.853603 0.520925 0 0.197228 0.980358 0 0.853579 0.520964 0 0.746473 0.665416 0 0.746454 0.665437 0 0.353572 0.935407 0 0.354993 0.934869 0 0.931435 0.363907 0 0.930796 0.365539 0 0.551711 0.834035 0 0.551669 0.834063 0 0.968973 0.247167 0 0.968969 0.247184 0 0.670492 0.741917 0 0.670568 0.741848 0 0.952446 0.304706 0 0.306572 0.951847 0 0.94746 0.319875 0 0.320385 0.947287 0 0.00285162 0.999996 0 1 0.000142599 0 0.999998 0.00210399 0 1 0.000593796 0 0.952986 0.303016 0 0.256912 0.966435 0 0.904986 0.425441 0 0.377002 0.926212 0 0.99987 0.0161294 0 0.999833 0.0182998 0 0.0161372 0.99987 0 0.999953 0.00974252 0 0.018859 0.999822 0 0.999975 0.00709728 0 0.00342391 0.999994 0 0.999993 0.00375305 0 0.999995 0.00307137 0 0.00047675 1 0 0.224191 0.974545 0 0.973547 0.228486 0 0.291803 0.956478 0 0.956661 0.291205 0 0.999873 0.015951 0 0.99994 0.01096 0 0.0177234 0.999843 0 0.0105905 0.999944 0 0.0540527 0.998538 0 0.99849 0.0549339 0 0.996539 0.083128 0 0.0649733 0.997887 0 0.999862 0.0165926 0 0.0154228 0.999881 0 0.0194842 0.99981 0 0.999902 0.0140022 0 0.999818 0.0190875 0 0.00868323 0.999962 0 0.998632 0.0522919 0 0.999808 0.0196121 0 0.0525527 0.998618 0 0.0193735 0.999812 0 0.998983 0.0450793 0 0.0470258 0.998894 0 0.999712 0.0239861 0 0.99968 0.025313 0 0.0262233 0.999656 0 0.0272196 0.999629 0 0.994275 0.106854 0 0.187816 0.982204 0 0.696256 0.717793 0 0.833713 0.552197 0 1 0.000385512 0 1 0.000653171 0 0.00208049 0.999998 0 0.00153701 0.999999 0 0.997585 0.069462 0 0.0703716 0.997521 0 0.0109568 0.99994 0 0.999954 0.00959605 0 0.984094 0.177646 0 0.991981 0.12639 0 0.175796 0.984427 0 0.125695 0.992069 0 0.170521 0.985354 0 0.98487 0.173293 0 0.988489 0.151294 0 0.154954 0.987922 0 0.225974 0.974133 0 0.247117 0.968986 0 0.999009 0.044516 0 0.0485816 0.998819 0 0.13161 0.991302 0 0.132233 0.991219 0 0.0109482 0.99994 0 0.999844 0.0176776 0 0.991742 0.128246 0 0.991922 0.126846 0 0.875846 0.48259 0 0.875635 0.482973 0 0.367782 0.929912 0 0.367754 0.929923 0 0.63484 0.772644 0 0.634815 0.772664 0 0.99843 0.0560097 0 0.99843 0.056013 0 0.931741 0.363124 0 0.931733 0.363145 0 0.776323 0.630335 0 0.776308 0.630354 0 0.980198 0.198018 0 0.194359 0.980931 0 0.980003 0.198984 0 0.194207 0.980961 0 0.525898 0.850548 0 0.526119 0.850411 0 0.00234818 0.999997 0 0.999999 0.00138042 0 0.0227105 0.999742 0 0.0448141 0.998995 0 0.999089 0.0426724 0 0.999737 0.0229407 0 0.076897 0.997039 0 0.0886427 0.996063 0 0.00145487 0.999999 0 0.999998 0.00184692 0 0.999999 0.00109043 0 0.000583861 1 0 0.0187991 0.999823 0 0.0228188 0.99974 0 0.999753 0.0222136 0 0.999795 0.0202605 0 0.935097 0.354391 0 0.945672 0.325123 0 0.999998 0.00175042 0 0.999999 0.00124631 0 0.00215252 0.999998 0 0.00100745 0.999999 0 0.996612 0.0822438 0 0.0821309 0.996622 0 0.000456206 1 0 0.00134167 0.999999 0 0.139703 0.990194 0 0.140769 0.990043 0 0.989887 0.141858 0 0.99022 0.139513 0 0.552892 0.833253 0 0.553275 0.832998 0 0.840054 0.542503 0 0.839826 0.542855 0 0.998921 0.0464421 0 0.915576 0.402146 0 0.998921 0.0464477 0 0.418847 0.908057 0 0.915566 0.402168 0 0.644971 0.764207 0 0.418874 0.908044 0 0.645007 0.764177 0 0.999961 0.0088587 0 0.00556946 0.999984 0 0.765322 0.643648 0 0.765312 0.643659 0 0.999473 0.0324688 0 0.0383371 0.999265 0 0.999174 0.040634 0 0.998685 0.051266 0 0.0730887 0.997325 0 0.995635 0.0933359 0 0.997304 0.0733757 0 0.0841103 0.996456 0 0.0301083 0.999547 0 0.998344 0.0575207 0 0.0634515 0.997985 0 0.998037 0.0626208 0 0.999771 0.021396 0 0.0203199 0.999794 0 0.999646 0.0266103 0 0.0286703 0.999589 0 0.999666 0.0258578 0 0.0287229 0.999587 0 0.297132 0.954836 0 0.0109948 0.99994 0 0.999936 0.0112985 0 0.319509 0.947583 0 0.999958 0.00915425 0 0.00895919 0.99996 0 0.396714 0.917942 0 0.917694 0.397288 0 0.416305 0.909225 0 0.909509 0.415684 0 0.616407 0.787428 0 0.78815 0.615483 0 0.995619 0.0935044 0 0.995276 0.0970911 0 0.100225 0.994965 0 0.0983287 0.995154 0 0.783743 0.621085 0 0.621373 0.783515 0 0.000829858 1 0 1 0.000557887 0 1 0.000500486 0 1 5.47937e-05 0 0.137225 0.99054 0 0.990629 0.136584 0 0.997957 0.0638938 0 0.0649464 0.997889 0 0.999997 0.00240166 0 1 0.000405274 0 0.00340172 0.999994 0 1 0.00026747 0 0.808689 0.588236 0 0.808625 0.588324 0 0.0668415 0.997764 0 0.0668399 0.997764 0 0.903362 0.428878 0 0.903346 0.428913 0 0.251397 0.967884 0 0.252093 0.967703 0 0.972657 0.232248 0 0.97243 0.233195 0 0.440499 0.897753 0 0.440469 0.897768 0 0.957223 0.289351 0 0.957226 0.28934 0 0.000831792 1 0 0.999997 0.00238175 0 0.718488 0.69554 0 0.718499 0.695528 0 0.880167 0.474664 0 0.877182 0.480158 0 0.990618 0.136661 0 0.137257 0.990535 0 0.00475562 0.999989 0 0.999997 0.00258939 0 0.999989 0.00459643 0 0.000803072 1 0 0.0320473 0.999486 0 0.999102 0.0423612 0 0.986886 0.161419 0 0.0570809 0.99837 0 0.99986 0.0167428 0 0.999867 0.016298 0 0.017847 0.999841 0 0.0161043 0.99987 0 0.365316 0.930884 0 0.930352 0.366669 0 0.305231 0.952278 0 0.305242 0.952275 0 0.692226 0.721681 0 0.692257 0.721651 0 0.805427 0.592695 0 0.805418 0.592707 0 0.442961 0.896541 0 0.44387 0.896091 0 0.00923967 0.999957 0 0.999965 0.00833038 0 0.892537 0.450975 0 0.89299 0.450076 0 0.60088 0.799339 0 0.6009 0.799324 0 0.949908 0.31253 0 0.949905 0.31254 0 0.474067 0.880489 0 0.893479 0.449104 0 0.723246 0.690591 0 0.723234 0.690603 0 0.999901 0.0140861 0 0.999905 0.01377 0 0.0192497 0.999815 0 0.0201938 0.999796 0 0.0096913 0.999953 0 0.017946 0.999839 0 0.999951 0.00985347 0 0.999859 0.0167911 0 0.999056 0.0434304 0 0.0465551 0.998916 0 0.991051 0.133481 0 0.133572 0.991039 0 0.997384 0.0722796 0 0.999611 0.027879 0 0.0275135 0.999621 0 0.0713761 0.997449 0 0.158562 0.987349 0 0.9843 0.176501 0 0.969657 0.244469 0 0.202711 0.979239 0 0.999392 0.0348612 0 0.0333191 0.999445 0 0.999272 0.0381438 0 0.0359785 0.999353 0 
VECTORS VY float