# vtk DataFile Version 3.0
Generated by GMDS VTK Writer

ASCII
DATASET UNSTRUCTURED_GRID
POINTS 421 float
0 0 0
0 5 0
1 5 0
1 0 0
5 2 0
5 3 0
5 0 0
7 0 0
8 0 0
8 -2 0
7 -2 0
7 -3 0
6 -3 0
6 -2 0
4 3 0
4 2 0
0 0.294118 0
0 0.588235 0
0 0.882353 0
0 1.17647 0
0 1.47059 0
0 1.76471 0
0 2.05882 0
0 2.35294 0
0 2.64706 0
0 2.94118 0
0 3.23529 0
0 3.52941 0
0 3.82353 0
0 4.11765 0
0 4.41176 0
0 4.70588 0
7 -1.71429 0
7 -1.42857 0
7 -1.14286 0
7 -0.857143 0
7 -0.571429 0
7 -0.285714 0
8 -0.285714 0
8 -0.571429 0
8 -0.857143 0
8 -1.14286 0
8 -1.42857 0
8 -1.71429 0
6.75 -2 0
6.5 -2 0
6.25 -2 0
6 -2.75 0
6 -2.5 0
6 -2.25 0
6.75 -3 0
6.5 -3 0
6.25 -3 0
5.28463 1.97964 0
5.56347 1.91899 0
5.83083 1.81926 0
6.08128 1.68251 0
6.30972 1.5115 0
6.5115 1.30972 0
6.68251 1.08128 0
6.81926 0.83083 0
6.91899 0.563465 0
6.97964 0.28463 0
5.29405 2.98555 0
5.58527 2.94236 0
5.87085 2.87082 0
6.14805 2.77164 0
6.41419 2.64576 0
6.66671 2.49441 0
6.90318 2.31903 0
7.12132 2.12132 0
7.31903 1.90318 0
7.49441 1.66671 0
7.64576 1.41419 0
7.77164 1.14805 0
7.87082 0.870854 0
7.94236 0.585271 0
7.98555 0.294051 0
7.96593 -2.25882 0
7.86603 -2.5 0
7.70711 -2.70711 0
7.5 -2.86603 0
7.25882 -2.96593 0
0.287931 4.99734 0
0.572588 4.95606 0
0.848852 4.87531 0
1.11638 4.76892 0
1.37628 4.64497 0
1.6303 4.50934 0
1.88078 4.36726 0
2.1292 4.22159 0
2.37652 4.07406 0
2.62348 3.92594 0
2.8708 3.77841 0
3.11922 3.63274 0
3.3697 3.49066 0
3.62372 3.35503 0
3.88362 3.23108 0
4.15115 3.12469 0
4.42741 3.04394 0
4.71207 3.00266 0
0.287931 0.00266285 0
0.572588 0.0439352 0
0.848852 0.124689 0
1.11638 0.231083 0
1.37628 0.355027 0
1.6303 0.490658 0
1.88078 0.632736 0
2.1292 0.778407 0
2.37652 0.925942 0
2.62348 1.07406 0
2.8708 1.22159 0
3.11922 1.36726 0
3.3697 1.50934 0
3.62372 1.64497 0
3.88362 1.76892 0
4.15115 1.87531 0
4.42741 1.95606 0
4.71207 1.99734 0
1.6874 2.49633 0
2.82035 2.52188 0
1.11938 1.51008 0
1.1215 3.54581 0
2.27316 3.15757 0
2.22421 1.83267 0
0.868714 2.34152 0
3.60709 2.5 0
0.745142 0.877185 0
0.747857 4.0959 0
1.79438 1.41534 0
1.79438 3.58466 0
0.728715 2.97144 0
2.86463 3.11169 0
2.8655 1.90741 0
6.625 -2.5 0
1.60418 1.91862 0
1.53845 3.02818 0
4.17928 2.50018 0
0.590171 1.77151 0
1.31132 0.966975 0
1.35651 4.09099 0
2.27865 2.59829 0
7.07233 -2.46132 0
0.522515 3.51702 0
7.49215 -2.0742 0
7.5 -1.6558 0
7.5 -0.142857 0
7.50337 -1.02625 0
4.89161 2.50063 0
1.16737 2.72787 0
6.52616 2.04457 0
7.04457 1.52616 0
5.85006 2.36879 0
7.36875 0.851426 0
3.34383 2.03905 0
3.33817 2.93291 0
7.47083 0.323417 0
5.3633 2.46656 0
0.432011 1.27856 0
2.26367 1.38249 0
2.26367 3.61751 0
0.442589 0.490373 0
0.462322 4.49874 0
0.460087 2.56913 0
1.3174 2.28109 0
7.52268 -0.567115 0
2.50866 2.22148 0
2.06344 2.2114 0
1.95248 2.86805 0
1.04371 1.93419 0
3.90386 2.79164 0
3.92125 2.22294 0
0.390265 2.155 0
2.6349 1.55737 0
2.62798 3.43428 0
1.12642 0.622096 0
1.09695 4.36355 0
7.48378 -2.43409 0
0.42582 3.93833 0
2.55832 2.76816 0
3.20732 2.42324 0
6.363 -2.31447 0
6.36412 -2.68609 0
1.70337 0.982702 0
1.70337 4.0173 0
0.373814 3.2175 0
6.2608 2.34606 0
7.34606 1.2608 0
6.85031 1.85031 0
0.895411 1.27839 0
1.91782 1.72026 0
1.89577 3.34864 0
1.03612 3.11862 0
0.962261 3.82952 0
4.53584 2.25582 0
0.372972 0.937665 0
6.8867 -2.72619 0
4.53639 2.74879 0
6.86018 -2.27809 0
1.43505 1.3083 0
1.43505 3.6917 0
2.03856 1.11559 0
2.03856 3.88441 0
3.02035 2.78925 0
7.23465 -2.20585 0
0.808037 2.63383 0
7.72533 -1.26644 0
7.26309 -1.25803 0
0.371242 2.90902 0
7.28856 -1.75603 0
7.70639 -1.76413 0
3.1578 3.20545 0
3.14838 1.81033 0
0.297719 1.5758 0
0.752978 0.456374 0
0.755161 4.54308 0
5.67068 2.60287 0
2.95679 2.2659 0
1.48343 2.75805 0
0.786108 3.2817 0
7.60287 0.674756 0
6.06323 1.94503 0
6.945 1.06365 0
6.56723 1.56723 0
7.73283 0.151121 0
5.12954 2.6813 0
3.6781 2.00657 0
3.68312 3.03627 0
7.29083 -0.384417 0
7.32077 -0.786291 0
5.59264 2.27625 0
7.29533 0.106982 0
1.57862 1.55054 0
1.59705 3.40312 0
7.27653 0.587982 0
5.09157 2.34984 0
4.20708 2.8029 0
4.20858 2.19937 0
0.821105 1.56572 0
0.259836 4.24052 0
1.68954 2.19854 0
1.3718 0.66183 0
1.36445 4.33891 0
1.29848 1.73894 0
6.59529 -2.72099 0
7.67388 -2.28272 0
6.59187 -2.27964 0
7.32101 -2.64552 0
1.29581 3.25549 0
2.53493 1.93615 0
2.56674 3.12849 0
0.237728 3.68643 0
0.78404 2.04779 0
2.92486 1.61313 0
2.96554 3.38131 0
0.980875 0.994675 0
0.287864 1.92761 0
3.90545 2.5 0
7.70489 -0.329638 0
7.72806 -0.769051 0
2.53765 2.5 0
2.26269 2.88844 0
0.845201 3.55709 0
0.700731 3.78757 0
1.98295 2.5 0
1.09729 2.45105 0
1.17809 1.25448 0
0.286317 0.270188 0
0.288419 4.72814 0
7.11454 -2.76496 0
3.32602 2.6246 0
7.25861 -1.52655 0
7.73862 -1.5293 0
0.256112 0.687069 0
6.35445 1.80998 0
6.80997 1.35451 0
4.83462 2.75501 0
7.22463 -1.01151 0
6.08153 2.50755 0
7.50755 1.08153 0
6.68257 2.2634 0
7.2634 1.68257 0
4.81111 2.26811 0
1.26594 2.96513 0
5.82546 2.09133 0
3.54154 2.24074 0
7.09136 0.824979 0
1.08637 4.12193 0
2.55234 1.34868 0
2.55135 3.65012 0
0.267473 2.41639 0
2.14731 1.61138 0
2.1482 3.35935 0
7.29914 -0.142595 0
3.38898 1.76326 0
3.39044 3.24183 0
5.40857 2.73573 0
7.7447 0.407137 0
1.87114 2.06152 0
1.38049 2.50829 0
0.589704 2.30786 0
0.188375 1.31971 0
2.28789 2.08815 0
7.76262 -1.99417 0
1.31666 2.0291 0
2.72865 2.1318 0
2.42427 1.634 0
2.39803 3.37328 0
3.65326 2.7486 0
1.61862 0.811469 0
1.62302 4.21392 0
1.07058 2.1822 0
0.593906 0.287122 0
0.59332 4.71384 0
0.647925 1.10947 0
0.569846 0.687248 0
0.958597 2.88553 0
0.570268 1.52643 0
0.55471 4.26594 0
7.78721 -1.02279 0
5.32526 2.21793 0
0.219321 3.40577 0
7.21557 0.329208 0
6.19191 -2.50007 0
1.78944 2.77102 0
0.845623 1.80095 0
2.27636 1.14341 0
2.27636 3.85659 0
0.194197 3.10165 0
7.73958 -0.0909678 0
6.83267 -2.49982 0
0.241064 2.67317 0
1.88474 0.909023 0
1.89749 4.09425 0
1.24446 3.81324 0
3.10396 2.0381 0
2.01714 1.40433 0
1.99575 3.60866 0
2.27654 2.35322 0
6.84095 2.07536 0
7.07521 1.84049 0
2.04579 3.09519 0
0.213598 4.50134 0
0.598251 2.76377 0
1.80315 3.06399 0
7.22127 -1.97246 0
1.53005 2.33533 0
2.80375 2.87101 0
3.11748 2.99776 0
6.19685 -2.79865 0
6.1967 -2.20154 0
3.96191 3.00212 0
3.96389 2.00641 0
6.47179 2.37102 0
7.37102 1.47179 0
1.64168 1.23996 0
1.64475 3.75232 0
0.905481 0.699051 0
0.87543 4.3276 0
6.42881 -2.50005 0
5.91063 2.63345 0
7.63418 0.912458 0
1.33295 1.48651 0
1.36053 3.47838 0
7.65517 -2.51236 0
7.03355 -2.19177 0
0.202521 1.11272 0
7.78316 -0.537939 0
3.04322 2.55753 0
6.3766 -2.14845 0
6.37505 -2.85575 0
1.01153 0.42482 0
0.999981 4.56794 0
7.30236 -2.3937 0
0.992518 3.33901 0
0.17151 3.96817 0
1.02566 1.70998 0
0.18912 2.18215 0
7.43009 -2.2606 0
7.5 -1.86506 0
4.64464 2.50507 0
2.07173 2.70285 0
2.68155 2.33875 0
4.41225 2.50298 0
3.22049 2.2314 0
6.28816 2.12272 0
7.12271 1.28824 0
6.63494 1.83336 0
6.83336 1.63494 0
2.8032 1.42486 0
2.80992 3.55024 0
6.05487 2.2224 0
7.2224 1.05493 0
0.192977 0.473268 0
7.52649 -2.64292 0
7.49646 -0.342996 0
2.69745 1.76083 0
7.51253 -0.777869 0
0.543871 2.00451 0
3.73162 2.3306 0
2.0729 1.9828 0
0.591309 3.1741 0
4.04892 2.64868 0
4.06279 2.34294 0
7.49817 -1.37706 0
1.14706 0.81564 0
3.17806 3.4202 0
3.17746 1.58511 0
1.20048 0.458971 0
1.19081 4.53686 0
3.38049 2.40399 0
0.683966 1.35488 0
2.7633 3.28117 0
1.54201 1.06188 0
1.50119 3.92991 0
1.84664 1.17782 0
1.84572 3.8236 0
1.49156 2.15254 0
7.49978 0.0612815 0
7.20337 -0.571429 0
1.85792 2.32623 0

CELLS 716 2864
3 9 303 43 
3 344 136 233 
3 191 344 233 
3 303 210 43 
3 163 205 300 
3 117 194 118 
3 148 225 235 
3 129 232 190 
3 130 191 233 
3 143 401 185 
3 135 190 232 
3 157 235 225 
3 120 179 347 
3 128 263 178 
3 128 178 318 
3 143 178 263 
3 176 242 287 
3 140 287 242 
3 11 50 196 
3 143 185 321 
3 179 261 250 
3 131 219 192 
3 99 100 197 
3 355 232 129 
3 356 130 233 
3 199 232 355 
3 200 356 233 
3 143 251 178 
3 0 267 101 
3 1 83 268 
3 117 237 194 
3 143 219 401 
3 10 365 44 
3 120 260 179 
3 322 7 62 
3 141 179 260 
3 152 230 216 
3 157 216 230 
3 153 220 234 
3 156 234 220 
3 125 300 205 
3 44 365 198 
3 155 270 203 
3 108 201 326 
3 90 327 202 
3 0 16 267 
3 1 268 31 
3 320 53 4 
3 108 326 109 
3 90 91 327 
3 231 7 322 
3 141 261 179 
3 67 186 278 
3 73 279 187 
3 330 134 246 
3 121 189 238 
3 235 320 4 
3 198 330 246 
3 99 197 236 
3 123 250 261 
3 203 270 368 
3 330 244 134 
3 196 244 330 
3 161 315 214 
3 49 350 323 
3 47 323 349 
3 214 315 357 
3 100 276 197 
3 142 269 196 
3 54 320 230 
3 53 320 54 
3 50 244 196 
3 129 190 336 
3 130 337 191 
3 163 343 205 
3 316 283 149 
3 192 283 316 
3 162 215 318 
3 121 266 189 
3 127 314 255 
3 189 255 314 
3 118 194 282 
3 142 196 330 
3 44 198 246 
3 135 298 190 
3 182 359 244 
3 139 309 241 
3 140 242 310 
3 61 234 322 
3 67 353 186 
3 73 187 354 
3 120 347 203 
3 143 321 251 
3 61 322 62 
3 136 324 218 
3 139 413 309 
3 140 310 414 
3 39 40 259 
3 102 267 312 
3 84 313 268 
3 18 195 273 
3 101 267 102 
3 83 84 268 
3 122 193 334 
3 215 358 318 
3 33 34 207 
3 41 42 206 
3 124 291 190 
3 179 250 347 
3 400 124 190 
3 128 287 193 
3 20 21 213 
3 122 262 193 
3 128 193 263 
3 131 192 316 
3 136 344 324 
3 127 195 314 
3 181 246 359 
3 39 259 367 
3 194 237 383 
3 10 32 345 
3 158 314 195 
3 96 97 227 
3 114 226 115 
3 48 49 323 
3 127 315 195 
3 131 208 401 
3 11 196 269 
3 158 195 366 
3 47 48 323 
3 142 198 365 
3 134 244 359 
3 138 213 256 
3 185 401 208 
3 155 227 308 
3 150 385 353 
3 151 354 386 
3 32 209 345 
3 137 383 237 
3 64 65 216 
3 75 76 220 
3 150 353 280 
3 151 281 354 
3 142 330 198 
3 197 383 236 
3 132 347 250 
3 139 266 199 
3 23 24 290 
3 18 366 195 
3 149 265 205 
3 81 82 247 
3 5 63 225 
3 8 224 77 
3 125 205 265 
3 167 264 338 
3 134 359 246 
3 180 217 368 
3 25 208 331 
3 120 368 217 
3 168 341 261 
3 155 308 270 
3 137 236 383 
3 24 331 290 
3 165 419 228 
3 165 229 419 
3 110 288 111 
3 92 93 289 
3 132 254 211 
3 133 212 253 
3 21 256 213 
3 55 221 56 
3 59 222 60 
3 57 223 58 
3 255 405 357 
3 264 324 381 
3 142 365 204 
3 122 334 363 
3 119 299 218 
3 181 323 350 
3 150 339 387 
3 151 388 340 
3 82 269 247 
3 111 288 389 
3 93 390 289 
3 139 199 413 
3 147 206 404 
3 147 404 207 
3 110 326 288 
3 92 289 327 
3 135 232 243 
3 211 406 295 
3 212 294 407 
3 252 398 300 
3 182 349 323 
3 228 293 395 
3 56 221 274 
3 59 275 222 
3 197 276 380 
3 57 274 223 
3 58 223 275 
3 144 345 379 
3 144 204 345 
3 96 227 295 
3 114 294 226 
3 180 368 270 
3 406 95 295 
3 407 294 113 
3 178 239 318 
3 200 363 334 
3 66 67 278 
3 73 74 279 
3 126 308 257 
3 166 249 302 
3 124 302 249 
3 29 30 239 
3 120 203 368 
3 33 207 271 
3 42 272 206 
3 170 257 308 
3 395 293 146 
3 37 228 419 
3 35 419 229 
3 55 284 221 
3 150 280 339 
3 151 340 281 
3 127 255 357 
3 103 214 371 
3 85 372 215 
3 107 309 332 
3 89 333 310 
3 60 222 286 
3 76 297 220 
3 109 326 110 
3 91 92 327 
3 78 79 245 
3 168 261 381 
3 136 248 233 
3 24 25 331 
3 98 99 236 
3 116 237 117 
3 141 338 264 
3 64 216 296 
3 194 380 282 
3 35 36 419 
3 36 37 419 
3 125 252 300 
3 168 381 324 
3 155 203 348 
3 145 379 209 
3 145 210 379 
3 159 201 336 
3 160 337 202 
3 160 289 307 
3 159 306 288 
3 63 296 225 
3 171 226 399 
3 182 244 370 
3 231 418 293 
3 142 204 373 
3 108 332 201 
3 90 202 333 
3 209 379 345 
3 34 277 207 
3 147 207 277 
3 44 246 45 
3 143 262 219 
3 105 241 106 
3 87 88 242 
3 119 324 264 
3 418 146 293 
3 159 326 201 
3 160 202 327 
3 169 252 311 
3 32 271 209 
3 43 210 272 
3 125 311 252 
3 78 245 303 
3 144 378 204 
3 27 28 251 
3 50 51 244 
3 172 300 398 
3 199 266 362 
3 120 217 382 
3 131 343 208 
3 121 362 266 
3 77 224 297 
3 70 340 339 
3 122 248 374 
3 192 374 248 
3 98 236 351 
3 116 352 237 
3 157 296 216 
3 144 379 303 
3 420 167 298 
3 156 220 297 
3 240 420 298 
3 183 332 309 
3 184 310 333 
3 103 312 214 
3 85 215 313 
3 142 247 269 
3 175 357 405 
3 145 209 271 
3 145 272 210 
3 285 384 410 
3 147 319 206 
3 170 351 236 
3 171 237 352 
3 174 307 289 
3 173 288 306 
3 154 384 285 
3 181 369 246 
3 163 208 343 
3 131 316 205 
3 207 404 271 
3 206 272 404 
3 145 271 404 
3 145 404 272 
3 21 22 256 
3 135 240 298 
3 158 301 213 
3 149 218 299 
3 249 396 306 
3 190 291 336 
3 191 337 292 
3 9 78 303 
3 103 371 104 
3 85 86 372 
3 20 213 301 
3 157 225 296 
3 148 380 276 
3 28 375 251 
3 192 248 283 
3 123 261 341 
3 138 256 398 
3 156 297 224 
3 124 249 306 
3 152 216 360 
3 154 294 212 
3 155 211 295 
3 149 205 316 
3 154 226 294 
3 155 295 227 
3 119 346 299 
3 131 205 343 
3 132 348 347 
3 136 218 283 
3 153 361 220 
3 148 282 380 
3 226 285 399 
3 17 18 273 
3 41 206 319 
3 149 283 218 
3 38 367 258 
3 35 229 277 
3 38 39 367 
3 132 211 348 
3 163 331 208 
3 185 208 328 
3 133 335 212 
3 5 225 276 
3 188 339 340 
3 203 347 348 
3 148 276 225 
3 25 328 208 
3 221 385 274 
3 222 275 386 
3 223 274 387 
3 223 388 275 
3 4 282 235 
3 140 334 287 
3 131 401 219 
3 210 303 379 
3 139 255 266 
3 158 213 317 
3 138 317 213 
3 193 287 334 
3 178 251 375 
3 169 311 304 
3 193 262 263 
3 155 348 211 
3 147 277 229 
3 54 230 284 
3 95 96 295 
3 113 294 114 
3 180 384 217 
3 154 285 226 
3 143 263 262 
3 61 286 234 
3 189 266 255 
3 154 212 335 
3 115 226 352 
3 97 351 227 
3 171 352 226 
3 170 227 351 
3 133 217 335 
3 156 224 418 
3 169 304 243 
3 79 364 245 
3 133 305 217 
3 30 342 239 
3 161 214 312 
3 162 313 215 
3 11 269 82 
3 146 418 329 
3 221 284 391 
3 144 303 245 
3 152 284 230 
3 37 293 228 
3 163 300 290 
3 172 290 300 
3 186 353 385 
3 187 386 354 
3 148 235 282 
3 192 219 374 
3 201 415 336 
3 202 337 416 
3 7 231 293 
3 153 234 286 
3 158 366 301 
3 224 329 418 
3 112 389 253 
3 94 254 390 
3 222 392 286 
3 26 321 328 
3 161 312 267 
3 162 268 313 
3 119 218 324 
3 156 418 231 
3 65 360 216 
3 170 308 227 
3 8 329 224 
3 111 389 112 
3 93 94 390 
3 173 306 396 
3 217 305 382 
3 129 336 415 
3 130 416 337 
3 75 220 361 
3 188 387 339 
3 188 340 388 
3 128 358 287 
3 123 341 292 
3 191 292 341 
3 32 33 271 
3 42 43 272 
3 157 230 320 
3 142 373 247 
3 144 245 378 
3 156 231 322 
3 165 397 229 
3 30 31 342 
3 156 322 234 
3 22 377 256 
3 136 283 248 
3 177 247 373 
3 177 378 245 
3 157 320 235 
3 200 334 414 
3 102 312 103 
3 84 85 313 
3 185 328 321 
3 12 47 349 
3 12 349 52 
3 4 118 282 
3 13 350 49 
3 13 46 350 
3 133 249 305 
3 51 370 244 
3 166 305 249 
3 165 228 395 
3 147 229 397 
3 31 268 342 
3 34 35 277 
3 133 253 396 
3 127 357 315 
3 149 299 265 
3 40 319 259 
3 40 41 319 
3 178 375 239 
3 29 239 375 
3 60 286 61 
3 45 246 369 
3 54 284 55 
3 232 362 243 
3 5 276 100 
3 56 274 57 
3 58 275 59 
3 164 304 311 
3 168 324 344 
3 190 298 400 
3 121 238 376 
3 132 412 254 
3 174 250 307 
3 104 408 105 
3 86 87 409 
3 138 238 317 
3 123 307 250 
3 177 245 364 
3 88 89 310 
3 106 309 107 
3 199 362 232 
3 200 233 363 
3 164 311 265 
3 106 241 309 
3 88 310 242 
3 183 309 413 
3 184 414 310 
3 146 329 258 
3 135 243 304 
3 125 265 311 
3 68 69 280 
3 71 72 281 
3 162 318 239 
3 128 318 358 
3 147 259 319 
3 137 237 403 
3 137 402 236 
3 153 279 361 
3 171 403 237 
3 170 236 402 
3 18 19 366 
3 162 239 342 
3 138 325 238 
3 167 338 302 
3 38 258 329 
3 152 360 278 
3 172 256 377 
3 8 38 329 
3 7 293 37 
3 175 405 241 
3 139 241 405 
3 105 408 241 
3 87 242 409 
3 159 288 326 
3 160 327 289 
3 140 414 334 
3 172 398 256 
3 63 64 296 
3 150 274 385 
3 151 386 275 
3 76 77 297 
3 126 270 308 
3 176 287 358 
3 150 387 274 
3 151 275 388 
3 26 27 321 
3 173 396 253 
3 189 411 238 
3 166 338 260 
3 141 260 338 
3 19 20 301 
3 165 367 259 
3 107 332 108 
3 89 90 333 
3 121 376 243 
3 169 243 376 
3 159 291 306 
3 160 307 292 
3 121 243 362 
3 164 265 299 
3 104 371 408 
3 86 409 372 
3 152 391 284 
3 173 389 288 
3 174 289 390 
3 70 71 340 
3 69 70 339 
3 119 240 346 
3 65 66 360 
3 169 325 252 
3 72 73 354 
3 67 68 353 
3 161 273 315 
3 153 286 392 
3 138 252 325 
3 175 241 408 
3 176 409 242 
3 195 315 273 
3 135 417 240 
3 74 75 361 
3 27 251 321 
3 119 420 240 
3 233 248 363 
3 163 290 331 
3 122 363 248 
3 177 394 247 
3 141 381 261 
3 81 247 394 
3 219 262 374 
3 10 345 365 
3 122 374 262 
3 152 278 391 
3 153 392 279 
3 204 365 345 
3 186 391 278 
3 187 279 392 
3 174 412 250 
3 132 250 412 
3 126 257 399 
3 133 396 249 
3 112 253 407 
3 94 406 254 
3 212 407 253 
3 211 254 406 
3 16 17 393 
3 66 278 360 
3 25 26 328 
3 161 267 393 
3 175 371 357 
3 176 358 372 
3 214 357 371 
3 215 372 358 
3 74 361 279 
3 22 23 377 
3 173 253 389 
3 138 398 252 
3 171 399 257 
3 124 306 291 
3 123 292 307 
3 254 412 390 
3 174 390 412 
3 80 81 394 
3 161 393 273 
3 137 257 402 
3 137 403 257 
3 171 257 403 
3 170 402 257 
3 16 393 267 
3 97 98 351 
3 115 352 116 
3 139 405 255 
3 79 80 364 
3 164 299 346 
3 162 342 268 
3 165 258 367 
3 165 395 258 
3 147 397 259 
3 45 369 46 
3 51 52 370 
3 28 29 375 
3 166 260 382 
3 146 258 395 
3 165 259 397 
3 120 382 260 
3 126 410 270 
3 180 270 410 
3 141 264 381 
3 180 410 384 
3 112 407 113 
3 94 95 406 
3 119 264 420 
3 167 420 264 
3 69 339 280 
3 71 281 340 
3 159 336 291 
3 160 292 337 
3 23 290 377 
3 238 325 376 
3 223 387 388 
3 222 386 392 
3 221 391 385 
3 188 388 387 
3 166 302 338 
3 187 392 386 
3 186 385 391 
3 68 280 353 
3 72 354 281 
3 199 355 413 
3 200 414 356 
3 164 417 304 
3 181 359 323 
3 182 323 359 
3 167 400 298 
3 17 273 393 
3 167 302 400 
3 19 301 366 
3 172 377 290 
3 126 399 285 
3 189 314 411 
3 191 341 344 
3 158 411 314 
3 201 332 415 
3 202 416 333 
3 183 415 332 
3 184 333 416 
3 126 285 410 
3 164 346 417 
3 238 411 317 
3 168 344 341 
3 166 382 305 
3 124 400 302 
3 154 335 384 
3 217 384 335 
3 177 364 394 
3 135 304 417 
3 169 376 325 
3 175 408 371 
3 176 372 409 
3 46 369 350 
3 158 317 411 
3 181 350 369 
3 52 349 370 
3 182 370 349 
3 204 378 373 
3 129 415 355 
3 130 356 416 
3 197 380 383 
3 194 383 380 
3 177 373 378 
3 80 394 364 
3 240 417 346 
3 183 413 355 
3 184 356 414 
3 183 355 415 
3 184 416 356 

CELL_TYPES 716
5 
5 
5 
5 
5 
5 
5 
5 
5 
5 
5 
5 
5 
5 
5 
5 
5 
5 
5 
5 
5 
5 
5 
5 
5 
5 
5 
5 
5 
5 
5 
5 
5 
5 
5 
5 
5 
5 
5 
5 
5 
5 
5 
5 
5 
5 
5 
5 
5 
5 
5 
5 
5 
5 
5 
5 
5 
5 
5 
5 
5 
5 
5 
5 
5 
5 
5 
5 
5 
5 
5 
5 
5 
5 
5 
5 
5 
5 
5 
5 
5 
5 
5 
5 
5 
5 
5 
5 
5 
5 
5 
5 
5 
5 
5 
5 
5 
5 
5 
5 
5 
5 
5 
5 
5 
5 
5 
5 
5 
5 
5 
5 
5 
5 
5 
5 
5 
5 
5 
5 
5 
5 
5 
5 
5 
5 
5 
5 
5 
5 
5 
5 
5 
5 
5 
5 
5 
5 
5 
5 
5 
5 
5 
5 
5 
5 
5 
5 
5 
5 
5 
5 
5 
5 
5 
5 
5 
5 
5 
5 
5 
5 
5 
5 
5 
5 
5 
5 
5 
5 
5 
5 
5 
5 
5 
5 
5 
5 
5 
5 
5 
5 
5 
5 
5 
5 
5 
5 
5 
5 
5 
5 
5 
5 
5 
5 
5 
5 
5 
5 
5 
5 
5 
5 
5 
5 
5 
5 
5 
5 
5 
5 
5 
5 
5 
5 
5 
5 
5 
5 
5 
5 
5 
5 
5 
5 
5 
5 
5 
5 
5 
5 
5 
5 
5 
5 
5 
5 
5 
5 
5 
5 
5 
5 
5 
5 
5 
5 
5 
5 
5 
5 
5 
5 
5 
5 
5 
5 
5 
5 
5 
5 
5 
5 
5 
5 
5 
5 
5 
5 
5 
5 
5 
5 
5 
5 
5 
5 
5 
5 
5 
5 
5 
5 
5 
5 
5 
5 
5 
5 
5 
5 
5 
5 
5 
5 
5 
5 
5 
5 
5 
5 
5 
5 
5 
5 
5 
5 
5 
5 
5 
5 
5 
5 
5 
5 
5 
5 
5 
5 
5 
5 
5 
5 
5 
5 
5 
5 
5 
5 
5 
5 
5 
5 
5 
5 
5 
5 
5 
5 
5 
5 
5 
5 
5 
5 
5 
5 
5 
5 
5 
5 
5 
5 
5 
5 
5 
5 
5 
5 
5 
5 
5 
5 
5 
5 
5 
5 
5 
5 
5 
5 
5 
5 
5 
5 
5 
5 
5 
5 
5 
5 
5 
5 
5 
5 
5 
5 
5 
5 
5 
5 
5 
5 
5 
5 
5 
5 
5 
5 
5 
5 
5 
5 
5 
5 
5 
5 
5 
5 
5 
5 
5 
5 
5 
5 
5 
5 
5 
5 
5 
5 
5 
5 
5 
5 
5 
5 
5 
5 
5 
5 
5 
5 
5 
5 
5 
5 
5 
5 
5 
5 
5 
5 
5 
5 
5 
5 
5 
5 
5 
5 
5 
5 
5 
5 
5 
5 
5 
5 
5 
5 
5 
5 
5 
5 
5 
5 
5 
5 
5 
5 
5 
5 
5 
5 
5 
5 
5 
5 
5 
5 
5 
5 
5 
5 
5 
5 
5 
5 
5 
5 
5 
5 
5 
5 
5 
5 
5 
5 
5 
5 
5 
5 
5 
5 
5 
5 
5 
5 
5 
5 
5 
5 
5 
5 
5 
5 
5 
5 
5 
5 
5 
5 
5 
5 
5 
5 
5 
5 
5 
5 
5 
5 
5 
5 
5 
5 
5 
5 
5 
5 
5 
5 
5 
5 
5 
5 
5 
5 
5 
5 
5 
5 
5 
5 
5 
5 
5 
5 
5 
5 
5 
5 
5 
5 
5 
5 
5 
5 
5 
5 
5 
5 
5 
5 
5 
5 
5 
5 
5 
5 
5 
5 
5 
5 
5 
5 
5 
5 
5 
5 
5 
5 
5 
5 
5 
5 
5 
5 
5 
5 
5 
5 
5 
5 
5 
5 
5 
5 
5 
5 
5 
5 
5 
5 
5 
5 
5 
5 
5 
5 
5 
5 
5 
5 
5 
5 
5 
5 
5 
5 
5 
5 
5 
5 
5 
5 
5 
5 
5 
5 
5 
5 
5 
5 
5 
5 
5 
5 
5 
5 
5 
5 
5 
5 
5 
5 
5 
5 
5 
5 
5 
5 
5 
5 
5 
5 
5 
5 
5 
5 
5 
5 
5 
5 
5 
5 
5 
5 
5 
5 
5 
5 
5 
5 
5 
5 
5 
5 
5 
5 
5 
5 
5 
5 
5 
5 
5 
5 
5 
5 
5 
5 
5 
5 
5 
5 
5 
5 
5 
5 
5 
5 
5 
5 
POINT_DATA 421
SCALARS GMDS_ID int 1
LOOKUP_TABLE default
0 1 2 3 4 5 6 7 8 9 10 11 12 13 14 15 16 17 18 19 20 21 22 23 24 25 26 27 28 29 30 31 32 33 34 35 36 37 38 39 40 41 42 43 44 45 46 47 48 49 50 51 52 53 54 55 56 57 58 59 60 61 62 63 64 65 66 67 68 69 70 71 72 73 74 75 76 77 78 79 80 81 82 83 84 85 86 87 88 89 90 91 92 93 94 95 96 97 98 99 100 101 102 103 104 105 106 107 108 109 110 111 112 113 114 115 116 117 118 119 120 121 122 123 124 125 126 127 128 129 130 131 132 133 134 135 136 137 138 139 140 141 142 143 144 145 146 147 148 149 150 151 152 153 154 155 156 157 158 159 160 161 162 163 164 165 166 167 168 169 170 171 172 173 174 175 176 177 178 179 180 181 182 183 184 185 186 187 188 189 190 191 192 193 194 195 196 197 198 199 200 201 202 203 204 205 206 207 208 209 210 211 212 213 214 215 216 217 218 219 220 221 222 223 224 225 226 227 228 229 230 231 232 233 234 235 236 237 238 239 240 241 242 243 244 245 246 247 248 249 250 251 252 253 254 255 256 257 258 259 260 261 262 263 264 265 266 267 268 269 270 271 272 273 274 275 276 277 278 279 280 281 282 283 284 285 286 287 288 289 290 291 292 293 294 295 296 297 298 299 300 301 302 303 304 305 306 307 308 309 310 311 312 313 314 315 316 317 318 319 320 321 322 323 324 325 326 327 328 329 330 331 332 333 334 335 336 337 338 339 340 341 342 343 344 345 346 347 348 349 350 351 352 353 354 355 356 357 358 359 360 361 362 363 364 365 366 367 368 369 370 371 372 373 374 375 376 377 378 379 380 381 382 383 384 385 386 387 388 389 390 391 392 393 394 395 396 397 398 399 400 401 402 403 404 405 406 407 408 409 410 411 412 413 414 415 416 417 418 419 420 
SCALARS angle float 1
LOOKUP_TABLE default
0 0 0 0 6.15888 6.16651 0 0.1428 0.0981748 6.02139 0 0.261799 0 0 0 0 0 0 0 0 0 0 0 0 0 0 0 0 0 0 0 0 0 0 0 0 0 0 0 0 0 0 0 0 0 0 0 0 0 0 0 0 0 5.71199 5.14079 4.56959 3.99839 3.42719 2.85599 2.28479 1.7136 1.1424 0.571199 5.89049 5.49779 5.10509 4.71239 4.31969 3.92699 3.53429 3.14159 2.74889 2.35619 1.9635 1.5708 1.1781 0.785398 0.392699 5.23599 4.18879 3.14159 2.0944 1.0472 5.97672 5.42645 4.95738 4.63616 4.41235 4.27042 4.19055 4.14672 4.12697 4.12697 4.14672 4.19055 4.27042 4.41235 4.63616 4.95738 5.42645 5.97672 0.306469 0.856738 1.32581 1.64703 1.87083 2.01276 2.09263 2.13647 2.15621 2.15621 2.13647 2.09263 2.01276 1.87083 1.64703 1.32581 0.856738 0.306469 3.10544 3.23337 1.21901 5.33934 4.1279 2.17375 0.103122 3.36549 0.908091 5.5987 1.98822 4.36759 6.10465 4.1204 2.18127 0.0935516 1.7919 4.83385 6.14582 0.314716 1.65498 4.69037 3.43054 0.197095 6.0545 6.21502 6.25412 0.142303 0.00677281 6.07184 5.97534 3.74637 2.47681 4.94588 1.2971 2.04875 4.24116 0.497909 5.68437 0.351601 2.12292 4.17825 0.65621 5.66757 6.26868 0.599681 0.0412954 2.49916 2.39365 4.10717 0.677549 4.86596 1.35934 0.0692573 2.1442 4.1485 1.45686 4.97025 0.11814 6.03531 3.78985 2.84477 0.0297354 0.0393182 1.98416 4.34574 6.19184 4.33612 1.92653 3.08976 0.972164 2.05236 4.31506 5.77405 5.44284 0.111765 0.375075 0.294421 5.99381 0.0616685 1.7414 4.71203 2.08764 4.21886 3.93204 0.034189 6.21634 6.27814 6.28096 6.23067 6.26641 6.2209 4.22043 2.07815 0.17377 1.08103 5.27447 5.33301 2.49108 5.24879 5.94338 0.903857 4.44029 1.82855 2.96917 0.283743 5.93349 1.73118 4.56409 0.0593969 0.017624 5.29883 0.299918 1.8298 4.59546 0.920819 5.95817 5.31232 0.877561 0.686993 6.07082 1.9453 1.71725 4.63508 1.37717 0.103156 5.9985 0.0526966 0.640243 5.20634 2.23734 4.09282 6.17842 0.279862 2.1142 4.1834 1.20386 0.100734 5.95829 0.0647928 0.0167479 3.14659 3.96427 5.7551 5.82 3.15192 0.0552638 1.42748 0.388904 5.92438 0.555779 3.78974 6.27439 6.26436 0.327618 3.71555 2.51442 6.04312 0.00483097 4.68567 1.57602 3.83006 2.43021 6.26461 5.54303 4.8095 1.99679 1.45151 5.08772 2.14229 4.14779 0.00623474 2.11498 4.19955 0.133567 1.9838 4.30894 5.69069 0.549276 2.1158 6.25181 0.0605393 0.13632 2.32577 6.08717 1.1061 2.36343 2.15025 4.15268 4.49718 1.9417 4.37347 0.391698 0.931925 5.38448 0.676319 0.753572 6.011 0.411673 5.72714 0.00372272 5.69849 6.21721 0.543016 0.0129376 4.22097 0.540095 2.13089 4.16199 6.25321 0.128184 0.1484 6.27163 2.06895 4.22736 4.96418 2.17412 2.07249 4.257 2.73633 3.45587 2.77764 4.1862 6.01462 6.21109 4.372 6.27493 1.25551 3.95727 4.15364 0.0172133 0.0131109 4.81681 1.4539 4.02826 2.23865 1.91841 4.45487 1.1821 5.27444 0.0489466 4.89806 1.3555 1.56932 4.93361 3.13603 0.0397925 0.148563 0.0270305 3.38703 0.0171142 0.0244451 1.43755 4.9258 0.1414 5.68524 6.21445 0.894739 0.0270429 6.27831 6.23035 6.14147 3.75932 2.71028 6.16223 2.30915 4.14482 2.10766 3.33875 2.80429 2.13069 4.15876 4.59125 1.66683 0.209677 2.83652 0.0795285 2.16547 0.0211616 0.173967 1.68086 2.1921 6.11045 5.36463 0.766082 6.27348 1.46033 4.22745 2.05895 1.54286 4.79523 2.66193 0.621436 4.14299 1.87155 4.54802 2.02682 4.3023 1.42327 0.256245 0.0257202 2.443 
VECTORS cross_X float