# vtk DataFile Version 3.0
Generated by GMDS VTK Writer

ASCII
DATASET UNSTRUCTURED_GRID
POINTS 553 float
0 0 0
0 5 0
1 5 0
1 0 0
5 2 0
5 3 0
4 3 0
4 2 0
0 0.2 0
0 0.4 0
0 0.6 0
0 0.8 0
0 1 0
0 1.2 0
0 1.4 0
0 1.6 0
0 1.8 0
0 2 0
0 2.2 0
0 2.4 0
0 2.6 0
0 2.8 0
0 3 0
0 3.2 0
0 3.4 0
0 3.6 0
0 3.8 0
0 4 0
0 4.2 0
0 4.4 0
0 4.6 0
0 4.8 0
0.195414 4.99995 0
0.390358 4.98824 0
0.582611 4.95376 0
0.770847 4.90148 0
0.95494 4.83602 0
1.13518 4.76057 0
1.31195 4.6773 0
1.48571 4.5879 0
1.65727 4.49436 0
1.82732 4.39808 0
1.99631 4.29996 0
2.16458 4.2006 0
2.3324 4.10048 0
2.5 4 0
2.6676 3.89952 0
2.83542 3.7994 0
3.00369 3.70004 0
3.17268 3.60192 0
3.34273 3.50564 0
3.51429 3.4121 0
3.68805 3.3227 0
3.86482 3.23943 0
4.04506 3.16398 0
4.22915 3.09852 0
4.41739 3.04624 0
4.60964 3.01176 0
4.80459 3.00005 0
0.195414 5.38788e-05 0
0.390358 0.0117647 0
0.582611 0.0462416 0
0.770847 0.0985229 0
0.95494 0.163976 0
1.13518 0.239425 0
1.31195 0.322698 0
1.48571 0.412096 0
1.65727 0.505638 0
1.82732 0.601915 0
1.99631 0.700042 0
2.16458 0.799402 0
2.3324 0.89952 0
2.5 1 0
2.6676 1.10048 0
2.83542 1.2006 0
3.00369 1.29996 0
3.17268 1.39808 0
3.34273 1.49436 0
3.51429 1.5879 0
3.68805 1.6773 0
3.86482 1.76057 0
4.04506 1.83602 0
4.22915 1.90148 0
4.41739 1.95376 0
4.60964 1.98824 0
4.80459 1.99995 0
5 2.8 0
5 2.6 0
5 2.4 0
5 2.2 0
1.723 2.50123 0
1.10201 1.49998 0
1.15767 3.47138 0
2.83927 2.5 0
1.98321 1.69109 0
1.97822 3.31969 0
0.863714 2.34039 0
3.61856 2.50295 0
0.760867 0.891551 0
0.743696 4.11829 0
2.63012 1.89019 0
2.62806 3.14022 0
0.689598 2.98047 0
1.63706 1.18371 0
1.6601 3.83377 0
0.598593 1.79902 0
1.24407 2.89256 0
4.22032 2.49723 0
2.2952 2.32824 0
3.23505 2.08661 0
3.21058 2.92595 0
1.4853 1.97403 0
0.57249 3.57905 0
2.20486 2.79832 0
1.24904 0.859171 0
1.24904 4.14083 0
0.496225 1.31273 0
0.462039 0.50275 0
0.462039 4.49725 0
2.39307 3.50887 0
2.40101 1.47629 0
0.461743 2.57527 0
1.66508 2.93926 0
1.90948 2.1217 0
1.32768 2.36494 0
1.0501 1.94614 0
1.55671 3.32834 0
2.05936 1.23168 0
2.05884 3.73864 0
3.90973 2.81042 0
3.89511 2.21842 0
0.429322 2.17521 0
4.62059 2.63892 0
1.56662 1.59082 0
2.99958 1.74514 0
3.00345 3.25744 0
0.326478 3.90676 0
3.22894 2.47315 0
2.28611 1.92218 0
1.0258 1.1237 0
1.01409 3.84852 0
2.57203 2.7671 0
1.03021 0.572512 0
1.03021 4.42749 0
0.383056 3.22936 0
0.980398 2.72111 0
0.36425 0.858873 0
3.60026 2.96889 0
3.60026 2.03111 0
2.90686 2.13552 0
1.00198 3.14472 0
0.789531 1.4683 0
2.74309 1.53936 0
2.74342 3.46614 0
2.88337 2.90712 0
2.30733 3.1524 0
1.57044 0.862424 0
1.57044 4.13758 0
0.33304 2.88959 0
4.47207 2.27678 0
2.03948 2.54002 0
0.347757 1.59035 0
1.31976 1.25115 0
1.32414 3.75285 0
2.54223 2.18651 0
0.727428 3.29908 0
1.46872 2.67456 0
0.310503 4.2205 0
1.86311 0.984183 0
1.86199 4.02708 0
1.79692 3.55321 0
4.27356 2.78309 0
0.744528 0.385954 0
0.744528 4.61405 0
0.760105 2.05427 0
1.83553 1.41686 0
2.51627 2.46132 0
3.3022 1.79518 0
3.3022 3.20482 0
1.28878 3.19744 0
0.281527 1.89725 0
4.19373 2.1888 0
0.857462 3.57816 0
0.280831 3.58075 0
1.75215 1.8614 0
1.63649 2.22109 0
1.27955 1.76831 0
0.715697 3.84206 0
0.265676 0.264135 0
0.274657 4.71845 0
3.44076 2.27542 0
3.44076 2.72458 0
1.9863 3.03604 0
3.92381 2.5 0
0.729481 1.16392 0
3.07619 2.71025 0
1.25504 0.58795 0
1.25504 4.41205 0
4.74495 2.3 0
2.33569 1.21289 0
2.33569 3.78711 0
2.29887 2.62534 0
0.258419 1.14485 0
0.246872 2.39404 0
0.86529 1.75413 0
1.14587 2.61657 0
2.40425 1.69381 0
1.29279 2.08609 0
2.10907 3.53544 0
2.11506 1.45453 0
0.627874 2.33658 0
1.92419 2.79443 0
0.26702 0.686419 0
0.675325 2.72722 0
0.971946 0.911133 0
0.954327 4.0814 0
1.73804 3.21735 0
3.06961 2.2968 0
0.672563 0.640428 0
0.672563 4.35957 0
2.44838 2.97938 0
1.47098 3.61765 0
2.6298 3.63749 0
2.5955 1.37409 0
1.49901 3.02941 0
1.40683 1.01972 0
1.41265 3.97775 0
2.0277 2.31993 0
0.205577 2.69972 0
3.8251 2.0043 0
3.80527 3.01061 0
3.66872 2.74422 0
3.66417 2.25147 0
0.222675 4.48827 0
1.38239 1.48312 0
0.542282 0.279767 0
0.542282 4.72023 0
4.47129 2.82938 0
0.220688 3.75789 0
2.4676 3.30673 0
4.74661 2.75368 0
2.02414 1.90896 0
1.05806 2.28323 0
0.235109 1.39687 0
1.65034 2.70363 0
2.97372 3.47163 0
2.97372 1.52837 0
0.557793 1.52654 0
1.46507 0.636039 0
1.46507 4.36396 0
0.504401 1.1125 0
1.04219 2.928 0
0.530396 4.12508 0
4.07696 2.94877 0
3.0286 1.94334 0
0.21787 3.08124 0
0.927999 3.37051 0
2.73713 2.30062 0
3.51104 3.20196 0
3.51104 1.79804 0
2.78625 2.72362 0
0.980461 1.36737 0
1.49066 2.37463 0
4.81746 2.47296 0
1.39237 3.44903 0
2.16482 0.973922 0
2.16482 4.02608 0
0.210573 2.08699 0
2.18282 1.74079 0
2.11913 2.11571 0
0.758136 2.51062 0
4.37763 2.63791 0
1.84642 3.7457 0
4.04845 2.03921 0
1.20512 1.06946 0
1.20801 3.91982 0
3.17519 1.619 0
3.17842 3.37978 0
3.05242 3.0548 0
2.84621 3.10013 0
2.82305 1.87932 0
0.950923 0.371029 0
0.950923 4.62897 0
0.48396 0.685042 0
0.565293 1.9824 0
1.82313 2.3192 0
0.209668 4.03891 0
1.06872 1.74696 0
1.84649 1.19739 0
1.53987 1.35777 0
0.963936 2.50763 0
2.49519 2.00287 0
4.06863 2.67804 0
2.67918 2.93984 0
1.47373 1.78581 0
0.45488 3.03921 0
0.173184 3.29678 0
2.25474 3.37738 0
4.07037 2.34697 0
2.56229 1.55698 0
1.79199 1.64033 0
1.41879 2.23406 0
0.192705 0.470314 0
0.427929 3.71576 0
2.32819 2.13519 0
0.533827 3.37776 0
3.38134 3.01057 0
3.37695 1.98951 0
3.43224 2.53741 0
1.15498 3.69057 0
1.79946 0.81542 0
1.7993 4.18619 0
0.928382 2.12104 0
3.01983 2.46871 0
3.2551 2.66605 0
0.515477 2.84492 0
0.851102 2.83794 0
1.45046 2.85918 0
2.69456 2.05018 0
0.186179 0.917118 0
0.845172 3.95011 0
0.182128 1.72889 0
2.38239 2.79118 0
1.13024 3.28258 0
1.10868 0.752595 0
1.10329 4.25312 0
0.858328 0.728728 0
0.850469 4.2718 0
1.70372 2.04313 0
0.809305 3.14101 0
1.17166 0.42708 0
1.17166 4.57292 0
0.540956 0.913113 0
0.673557 1.32692 0
2.82478 3.29888 0
2.84141 1.67871 0
0.495748 4.31605 0
1.14155 1.29004 0
1.16887 3.06509 0
4.37185 2.13845 0
0.844927 1.05225 0
2.15769 3.004 0
0.930893 1.58056 0
3.73438 1.86004 0
3.69389 3.14872 0
1.9537 3.60473 0
3.25341 2.27554 0
4.63287 2.17451 0
1.69833 1.01198 0
1.70756 4.00173 0
4.61672 2.39753 0
0.415967 1.79103 0
1.87104 2.64816 0
2.56101 3.47771 0
2.81416 3.63933 0
2.81797 1.36872 0
4.29587 2.33456 0
2.50397 1.18498 0
2.50887 3.81667 0
2.90573 2.33461 0
2.10037 3.20784 0
0.536989 3.92454 0
0.632872 2.15129 0
0.15125 2.9 0
0.593836 3.18314 0
1.80803 3.372 0
1.60552 3.13816 0
2.64497 3.33794 0
0.722067 3.47793 0
2.44757 2.31676 0
1.64846 0.68055 0
1.64846 4.31945 0
2.25143 1.57264 0
1.40418 0.817956 0
1.40501 4.18168 0
0.713108 1.67215 0
2.00031 0.884979 0
2.00016 4.11655 0
0.158187 4.30444 0
3.77164 2.59528 0
1.3424 1.89854 0
1.14022 2.77579 0
2.64502 2.53055 0
3.76646 2.39848 0
0.152999 1.54322 0
2.05803 2.71943 0
4.43918 2.46295 0
3.05729 2.85939 0
0.394677 2.70712 0
2.46148 3.14544 0
2.19367 2.4565 0
2.46624 2.60574 0
0.879995 1.92492 0
0.860446 3.74336 0
3.19192 1.93496 0
0.153442 2.52626 0
0.816515 0.547887 0
0.815488 4.4544 0
2.25717 3.64097 0
2.25433 1.34591 0
1.17421 2.4247 0
0.424166 2.39546 0
0.410794 0.177242 0
0.410794 4.82276 0
0.719097 3.66015 0
0.151046 2.26645 0
1.29535 2.72473 0
1.98172 1.36521 0
0.393901 1.43819 0
4.8457 2.16229 0
1.48677 1.17952 0
1.49418 3.80359 0
0.161169 0.16205 0
0.161169 4.83795 0
1.29094 3.59527 0
2.64157 1.72576 0
0.148472 3.89694 0
0.819404 0.246573 0
0.819404 4.75343 0
0.840626 1.25041 0
1.89687 2.46571 0
1.3529 2.53318 0
1.38568 1.64946 0
3.20736 3.07597 0
2.0357 2.88229 0
1.96954 1.52995 0
4.276 2.93461 0
0.32983 4.3653 0
2.36964 2.46565 0
2.00887 1.06771 0
1.9877 3.91319 0
3.74616 2.12633 0
3.74083 2.88296 0
3.36861 1.65099 0
3.36861 3.34901 0
1.66068 3.663 0
1.61428 3.4972 0
0.661579 1.05618 0
1.91039 3.17582 0
1.70382 1.32794 0
4.64859 2.85415 0
1.64414 1.74632 0
0.39318 2.00117 0
2.96582 2.6252 0
0.728363 1.87473 0
0.61909 0.492398 0
0.61909 4.5076 0
0.143196 3.48701 0
0.129052 1.90134 0
0.147726 1.25681 0
3.4672 2.87733 0
3.4672 2.12267 0
2.33743 1.07118 0
2.33825 3.92909 0
2.42571 1.31802 0
2.43646 3.66873 0
1.90044 1.81487 0
1.56234 2.53856 0
1.86712 2.92833 0
0.4291 3.51545 0
0.118465 1.10376 0
3.0811 2.12441 0
1.33627 3.03746 0
0.153443 4.62805 0
0.768069 2.2028 0
0.373651 4.06229 0
1.39671 3.30294 0
1.12281 2.09352 0
0.378475 0.367684 0
0.410139 4.64186 0
0.127798 0.313004 0
1.01706 3.57831 0
1.68756 1.46674 0
1.23959 1.4068 0
1.86004 1.95345 0
0.314763 2.53756 0
4.25346 2.04969 0
1.34435 0.471029 0
1.34435 4.52897 0
0.878837 3.00643 0
4.20909 2.65215 0
1.80738 3.90138 0
3.55804 2.37027 0
3.56836 2.63347 0
0.68732 0.211974 0
0.68732 4.78803 0
3.14796 1.78612 0
3.14877 3.19456 0
2.1073 1.60805 0
0.638402 4.22198 0
1.95009 3.46144 0
0.343464 1.25554 0
1.61181 1.88214 0
4.85931 2.65036 0
2.09291 3.38487 0
1.23754 1.61584 0
0.59444 3.74431 0
0.585689 2.51967 0
3.31692 2.80759 0
1.50742 2.11168 0
0.115224 0.698639 0
0.319187 3.39274 0
1.18503 1.89478 0
4.05192 2.19835 0
3.36464 2.39284 0
1.79541 3.07249 0
1.77842 2.81363 0
2.29695 2.95118 0
1.65417 2.37238 0
0.833025 2.65836 0
3.95447 3.03758 0
4.8513 2.85076 0
4.88916 2.30132 0
2.19342 1.15055 0
2.19041 3.83918 0
0.366858 1.03742 0
1.2964 0.730742 0
1.29549 4.27033 0
0.613049 1.19445 0
2.94768 2.77255 0
1.7714 2.17789 0
4.07289 2.55266 0
3.94512 2.64153 0
0.330596 0.536783 0
1.12637 0.94434 0
1.11985 4.05181 0
2.48917 1.84451 0
1.44717 3.17229 0
1.26476 3.34182 0
2.69891 3.76129 0
2.68833 1.24375 0
3.92574 2.36091 0
0.526378 1.67613 0
0.128943 3.64513 0
3.34282 2.16535 0
0.67439 3.99202 0
2.17212 2.25825 0
0.292396 2.26363 0
2.15898 2.62792 0
1.22692 2.24615 0
3.1219 2.57795 0
0.646141 0.779342 0
3.18322 2.79384 0
4.50451 2.0877 0
0.526582 2.67484 0
0.286122 0.118805 0
0.287405 4.87871 0
3.917 1.88893 0
0.135302 4.15911 0
1.55958 1.06831 0
1.56898 3.95088 0
4.10899 2.80521 0
2.58113 2.35299 0

CELLS 1010 4040
3 499 207 301 
3 111 207 499 
3 204 392 287 
3 392 125 287 
3 221 436 264 
3 436 126 264 
3 162 234 289 
3 152 223 299 
3 142 196 330 
3 143 331 197 
3 120 299 223 
3 20 21 228 
3 463 29 30 
3 146 212 319 
3 126 365 216 
3 150 329 256 
[...]
POINT_DATA 553
SCALARS GMDS_ID int 1
LOOKUP_TABLE default
0 1 2 3 4 5 6 7 8 9 10 11 12 13 14 15 16 17 18 19 20 21 22 23 24 25 26 27 28 29 30 31 32 33 34 35 36 37 38 39 40 41 42 43 44 45 46 47 48 49 50 51 52 53 54 55 56 57 58 59 60 61 62 63 64 65 66 67 68 69 70 71 72 73 74 75 76 77 78 79 80 81 82 83 84 85 86 87 88 89 90 91 92 93 94 95 96 97 98 99 100 101 102 103 104 105 106 107 108 109 110 111 112 113 114 115 116 117 118 119 120 121 122 123 124 125 126 127 128 129 130 131 132 133 134 135 136 137 138 139 140 141 142 143 144 145 146 147 148 149 150 151 152 153 154 155 156 157 158 159 160 161 162 163 164 165 166 167 168 169 170 171 172 173 174 175 176 177 178 179 180 181 182 183 184 185 186 187 188 189 190 191 192 193 194 195 196 197 198 199 200 201 202 203 204 205 206 207 208 209 210 211 212 213 214 215 216 217 218 219 220 221 222 223 224 225 226 227 228 229 230 231 232 233 234 235 236 237 238 239 240 241 242 243 244 245 246 247 248 249 250 251 252 253 254 255 256 257 258 259 260 261 262 263 264 265 266 267 268 269 270 271 272 273 274 275 276 277 278 279 280 281 282 283 284 285 286 287 288 289 290 291 292 293 294 295 296 297 298 299 300 301 302 303 304 305 306 307 308 309 310 311 312 313 314 315 316 317 318 319 320 321 322 323 324 325 326 327 328 329 330 331 332 333 334 335 336 337 338 339 340 341 342 343 344 345 346 347 348 349 350 351 352 353 354 355 356 357 358 359 360 361 362 363 364 365 366 367 368 369 370 371 372 373 374 375 376 377 378 379 380 381 382 383 384 385 386 387 388 389 390 391 392 393 394 395 396 397 398 399 400 401 402 403 404 405 406 407 408 409 410 411 412 413 414 415 416 417 418 419 420 421 422 423 424 425 426 427 428 429 430 431 432 433 434 435 436 437 438 439 440 441 442 443 444 445 446 447 448 449 450 451 452 453 454 455 456 457 458 459 460 461 462 463 464 465 466 467 468 469 470 471 472 473 474 475 476 477 478 479 480 481 482 483 484 485 486 487 488 489 490 491 492 493 494 495 496 497 498 499 500 501 502 503 504 505 506 507 508 509 510 511 512 513 514 515 516 517 518 519 520 521 522 523 524 525 526 527 528 529 530 531 532 533 534 535 536 537 538 539 540 541 542 543 544 545 546 547 548 549 550 551 552 
SCALARS angle float 1
LOOKUP_TABLE default
0 0 0 0 0 0 0 0 0 0 0 0 0 0 0 0 0 0 0 0 0 0 0 0 0 0 0 0 0 0 0 0 6.16263 5.8083 5.38646 5.05814 4.80709 4.60981 4.45233 4.3345 4.25451 4.20067 4.16423 4.14059 4.12724 4.12292 4.12724 4.14059 4.16423 4.20067 4.25451 4.3345 4.45233 4.60981 4.80709 5.05814 5.38646 5.8083 6.16263 0.120553 0.47489 0.896721 1.22505 1.47609 1.67338 1.83085 1.94869 2.02868 2.08252 2.11896 2.1426 2.15594 2.16026 2.15594 2.1426 2.11896 2.08252 2.02868 1.94869 1.83085 1.67338 1.47609 1.22505 0.896721 0.47489 0.120553 0 0 0 0 6.13067 0.885798 5.28909 3.2737 1.91039 4.37396 0.0699835 4.36922 0.808981 5.53123 2.14784 4.16804 6.10956 1.82439 4.43179 0.181455 5.78072 6.07363 2.55405 2.06148 4.26725 1.01924 5.96353 4.11782 1.61215 4.67696 0.274604 0.52936 5.80089 4.20054 2.09066 6.26826 4.94681 1.77093 0.182614 0.412801 4.78763 2.02945 4.26038 4.9168 1.28069 0.0474927 6.08943 1.53995 2.07778 4.22305 6.11755 3.21787 2.08639 1.09856 5.22516 3.9445 1.45974 4.84231 6.15505 6.13037 0.274989 4.53841 1.75221 2.26205 5.79578 0.47885 2.11581 4.17475 4.11483 4.22223 1.89565 4.38801 6.23629 0.251738 3.63758 0.114193 1.45594 4.80571 2.35948 5.94366 5.84734 6.05302 2.01401 4.26613 4.43549 5.49154 1.034 5.28582 0.164924 1.87795 3.09403 1.97618 4.32077 5.34879 0.0517315 0.741343 5.65845 6.15763 1.61823 0.948375 0.900621 5.71525 0.363841 6.00264 2.0536 4.3615 4.4033 5.82308 0.593415 4.00183 1.74644 4.54233 0.0710217 2.10317 4.18182 3.73016 0.15118 0.00629156 0.380371 6.15898 2.08815 0.53598 4.27633 2.01221 0.0408591 4.48503 0.192544 6.20743 1.16995 5.16968 4.62139 2.46616 0.793667 5.52819 4.13759 4.70663 4.15931 2.12393 5.17409 1.6989 4.57847 2.18364 6.26859 1.56678 4.67675 4.65016 1.64993 6.10474 1.36137 0.774949 5.56092 5.8033 6.19234 4.19509 6.1055 1.91976 0.154139 0.0893868 5.38706 4.19116 2.09884 0.245681 1.88344 4.40168 0.352558 5.93944 5.85206 5.01159 2.10108 6.2323 5.70627 2.57688 4.43 1.86284 3.89785 0.813027 0.273623 6.24875 4.93076 2.1071 4.17653 0.028187 2.01892 2.06096 6.27443 5.88819 4.34795 1.33668 1.42597 4.85931 2.03137 4.26101 4.22581 4.17766 2.13198 1.3624 4.93893 0.47039 0.117881 1.4206 6.18012 0.603799 1.94957 1.65462 6.27054 2.18269 5.39055 4.1009 1.2226 6.17568 6.21838 4.24331 0.474044 2.10938 1.76869 0.48176 0.211386 6.0587 2.22818 6.04568 4.38235 1.93662 3.91137 5.10762 2.01803 4.2649 0.20589 3.16569 4.07444 6.20692 6.10942 5.5208 2.22536 0.119148 5.45226 0.0440928 4.01111 5.50886 1.49074 4.81155 1.08204 5.24806 1.39816 5.96672 1.71544 4.57415 0.465574 0.432476 4.1899 2.10613 5.81804 1.14856 5.67726 0.578138 0.846135 4.26547 0.568686 1.67299 4.53615 4.33007 2.27758 0.272786 1.92406 4.34971 0.0182886 0.107536 4.62977 4.17964 4.15655 2.12939 0.251158 2.13012 4.15339 2.64207 4.31379 5.91559 0.0916115 6.26665 6.07575 4.48642 4.86413 4.18148 5.86518 2.58935 1.99327 4.29032 2.04801 1.78307 4.50214 0.299643 2.0897 4.19364 6.13631 4.97148 0.851618 6.00611 3.3684 0.968798 0.0436811 4.18775 6.21437 4.15382 6.2519 4.18354 3.02064 3.61657 0.290098 5.5523 2.03161 6.28179 1.09334 5.22617 4.21776 2.06937 0.062871 0.0130261 0.530145 5.79988 5.79 0.00820723 5.94914 1.97239 0.166636 0.0535213 1.69757 4.57997 0.264862 6.04611 4.96783 2.11872 6.23066 1.16962 5.13243 0.693254 2.55265 6.20437 1.21184 4.28996 4.33478 1.93189 5.28314 5.9984 3.09858 2.04742 4.24765 1.5821 4.67851 1.97951 4.30796 4.49632 4.61505 0.561826 4.45415 1.81772 5.96146 1.53799 0.0671203 3.75017 0.221967 0.780093 5.55008 6.21277 0.0181552 0.0724569 4.44164 1.88717 2.12434 4.15952 2.10711 4.1787 1.81817 6.10127 4.56778 6.07888 0.0712261 2.17971 5.46171 6.17756 0.108441 6.04557 5.05519 0.349794 0.476524 5.82871 0.168199 5.42451 1.74558 1.20414 1.73181 6.27809 0.841927 1.84878 4.43612 5.99834 5.65364 4.32416 2.04798 4.48395 1.07868 5.2303 2.03311 4.26858 1.99043 5.65295 4.36304 0.180616 1.37333 6.22262 4.30317 0.993747 5.90054 6.27618 4.2962 0.854757 0.0590691 6.15017 0.614282 1.03221 2.611 4.61721 4.81595 4.17215 0.534794 6.20478 4.79203 6.15566 0.0194108 2.08128 4.20546 0.247756 1.72216 4.56685 0.432883 4.02038 1.41678 5.76032 5.24467 0.332479 1.3981 4.90638 2.12303 5.10292 5.23701 4.14211 2.14137 0.705426 0.180903 6.23376 2.03159 5.70853 2.28154 0.0197432 3.84977 0.275318 3.69695 0.678242 4.18035 0.445652 6.2435 0.435861 5.88062 1.56372 6.20745 1.81237 4.4543 5.23648 2.71757 
VECTORS cross_X float
1 0 0 1 0 0 1 0 0 1 0 0 1 0 0 1 0 0 1 0 0 1 0 0 1 0 0 1 0 0 1 0 0 1 0 0 1 0 0 1 0 0 1 0 0 1 0 0 1 0 0 1 0 0 1 0 0 1 0 0 1 0 0 1 0 0 1 0 0 1 0 0 1 0 0 1 0 0 1 0 0 1 0 0 1 0 0 1 0 0 1 0 0 1 0 0 0.0301336 0.999546 0 0.118444 0.992961 0 0.222307 0.974977 0 0.301496 0.953467 0 0.360704 0.93268 0 0.406248 0.913763 0 0.441898 0.897065 0 0.468128 0.883661 0 0.485705 0.874123 0 0.497427 0.867506 0 0.505308 0.862939 0 0.510399 0.859938 0 0.513266 0.85823 0 0.514192 0.857675 0 0.513266 0.85823 0 0.510399 0.859938 0 0.505308 0.862939 0 0.497427 0.867506 0 0.485705 0.874123 0 0.468128 0.883661 0 0.441898 0.897065 0 0.406248 0.913763 0 0.360704 0.93268 0 0.301496 0.953467 0 0.222307 0.974977 0 0.118444 0.992961 0 0.0301336 0.999546 0 0.999546 0.0301336 0 0.992961 0.118444 0 0.974977 0.222307 0 0.953467 0.301496 0 0.93268 0.360704 0 0.913763 0.406248 0 0.897065 0.441898 0 0.883661 0.468128 0 0.874123 0.485705 0 0.867506 0.497427 0 0.862939 0.505308 0 0.859938 0.510399 0 0.85823 0.513266 0 0.857675 0.514192 0 0.85823 0.513266 0 0.859938 0.510399 0 0.862939 0.505308 0 0.867506 0.497427 0 0.874123 0.485705 0 0.883661 0.468128 0 0.897065 0.441898 0 0.913763 0.406248 0 0.93268 0.360704 0 0.953467 0.301496 0 0.974977 0.222307 0 0.992961 0.118444 0 0.999546 0.0301336 0 1 0 0 1 0 0 1 0 0 1 0 0 0.0381197 0.999273 0 0.97558 0.219644 0 0.245973 0.969277 0 0.683372 0.730071 0 0.888102 0.459647 0 0.459388 0.888236 0 0.999847 0.017495 0 0.46044 0.887691 0 0.979618 0.200869 0 0.186883 0.982382 0 0.859267 0.511527 0 0.504486 0.86342 0 0.0433927 0.999058 0 0.897778 0.440448 0 0.446498 0.894784 0 0.998971 0.0453481 0 0.125285 0.992121 0 0.0523637 0.998628 0 0.802984 0.596001 0 0.87011 0.492857 0 0.482917 0.875666 0 0.967711 0.252061 0 0.0798296 0.996809 0 0.515286 0.857018 0 0.919874 0.392214 0 0.390851 0.920454 0 0.997644 0.0685972 0 0.991256 0.131954 0 0.120282 0.99274 0 0.497453 0.867491 0 0.866491 0.499192 0 0.00373102 0.999993 0 0.327912 0.944708 0 0.903584 0.428411 0 0.998958 0.0456377 0 0.99468 0.103017 0 0.365238 0.930914 0 0.874029 0.485874 0 0.484422 0.874835 0 0.334992 0.942221 0 0.949181 0.31473 0 0.99993 0.0118729 0 0.0484201 0.998827 0 0.926803 0.375547 0 0.868095 0.496397 0 0.492564 0.870276 0 0.0413961 0.999143 0 0.693495 0.720461 0 0.867024 0.498266 0 0.962523 0.271201 0 0.261433 0.965222 0 0.551924 0.833894 0 0.934147 0.356888 0 0.35248 0.935819 0 0.0320287 0.999487 0 0.0381941 0.99927 0 0.997638 0.0686931 0 0.422492 0.906367 0 0.90558 0.424176 0 0.844314 0.535848 0 0.121549 0.992585 0 0.992843 0.119427 0 0.863336 0.504629 0 0.503036 0.864266 0 0.515926 0.856633 0 0.492743 0.870175 0 0.88979 0.45637 0 0.456266 0.889844 0 0.0117244 0.999931 0 0.99802 0.062893 0 0.614223 0.789132 0 0.999593 0.0285444 0 0.934486 0.356001 0 0.361027 0.932556 0 0.831013 0.556253 0 0.0847793 0.9964 0 0.108746 0.99407 0 0.0575093 0.998345 0 0.875898 0.482496 0 0.483162 0.875531 0 0.445671 0.895197 0 0.196622 0.980479 0 0.966775 0.25563 0 0.246767 0.969075 0 0.99915 0.0412194 0 0.8918 0.452429 0 0.715464 0.698649 0 0.880422 0.474192 0 0.471158 0.882049 0 0.231479 0.97284 0 0.999916 0.0129325 0 0.982874 0.184276 0 0.155549 0.987828 0 0.0313829 0.999507 0 0.919277 0.393612 0 0.972025 0.234879 0 0.974759 0.223258 0 0.141507 0.989937 0 0.995866 0.0908349 0 0.07008 0.997541 0 0.87108 0.491142 0 0.462153 0.8868 0 0.45286 0.891582 0 0.114774 0.993392 0 0.989016 0.14781 0 0.539916 0.841719 0 0.906191 0.422869 0 0.421605 0.90678 0 0.999842 0.0177545 0 0.864926 0.501899 0 0.501509 0.865152 0 0.595796 0.803136 0 0.999286 0.0377859 0 0.999999 0.00157289 0 0.995482 0.0949496 0 0.0310476 0.999518 0 0.866804 0.498648 0 0.991036 0.133594 0 0.48093 0.876759 0 0.876115 0.482102 0 0.999948 0.0102146 0 0.43455 0.900648 0 0.998842 0.0481174 0 0.0189387 0.999821 0 0.95753 0.288335 0 0.274795 0.961503 0 0.403601 0.914935 0 0.815884 0.578216 0 0.98038 0.197117 0 0.187631 0.98224 0 0.511043 0.859555 0 0.384013 0.923328 0 0.50637 0.862316 0 0.86231 0.50638 0 0.273735 0.961805 0 0.911152 0.41207 0 0.413395 0.910552 0 0.854655 0.519197 0 0.00364895 0.999993 0 0.924263 0.381756 0 0.390899 0.920434 0 0.397009 0.917815 0 0.916128 0.400885 0 0.0445967 0.999005 0 0.94264 0.333811 0 0.981292 0.192527 0 0.179586 0.983742 0 0.119684 0.992812 0 0.0227088 0.999742 0 0.498636 0.866811 0 0.0444056 0.999014 0 0.887023 0.461726 0 0.999258 0.0385251 0 0.99975 0.0223448 0 0.222162 0.97501 0 0.499487 0.866321 0 0.86547 0.500961 0 0.998114 0.0613817 0 0.891179 0.453652 0 0.453221 0.891398 0 0.996118 0.0880253 0 0.0858314 0.99631 0 0.107573 0.994197 0 0.312571 0.949894 0 0.865188 0.501447 0 0.0127208 0.999919 0 0.14373 0.989617 0 0.799569 0.600575 0 0.4469 0.894584 0 0.893503 0.449057 0 0.561612 0.827401 0 0.979414 0.20186 0 0.997661 0.0683524 0 0.00860779 0.999963 0 0.331701 0.943385 0 0.864433 0.502748 0 0.502653 0.864488 0 0.999975 0.0070467 0 0.875305 0.483571 0 0.870174 0.492744 0 0.0021896 0.999998 0 0.0985883 0.995128 0 0.465155 0.885229 0 0.944683 0.327984 0 0.937126 0.34899 0 0.348498 0.93731 0 0.873796 0.486292 0 0.484282 0.874912 0 0.491965 0.870615 0 0.502407 0.864631 0 0.861289 0.508116 0 0.942554 0.334054 0 0.329775 0.94406 0 0.993093 0.117327 0 0.999566 0.0294659 0 0.937594 0.347731 0 0.0257632 0.999668 0 0.988629 0.150377 0 0.883557 0.468324 0 0.915658 0.401958 0 0.00316251 0.999995 0 0.854779 0.518993 0 0.22131 0.975203 0 0.518907 0.854831 0 0.953651 0.300914 0 0.0268736 0.999639 0 0.0162018 0.999869 0 0.48815 0.87276 0 0.992986 0.118234 0 0.864147 0.50324 0 0.903824 0.427904 0 0.992756 0.120149 0 0.998604 0.0528219 0 0.0560927 0.998426 0 0.848821 0.52868 0 0.0593425 0.998238 0 0.457524 0.889197 0 0.885068 0.465461 0 0.558812 0.829294 0 0.289679 0.957124 0 0.875412 0.483377 0 0.483432 0.875382 0 0.998676 0.0514499 0 0.702833 0.711355 0 0.52455 0.851379 0 0.0190656 0.999818 0 0.0434276 0.999057 0 0.189445 0.981891 0 0.849194 0.528081 0 0.999556 0.0297827 0 0.206241 0.978501 0 0.999939 0.011023 0 0.537962 0.842969 0 0.192374 0.981322 0 0.931353 0.364117 0 0.359664 0.933082 0 0.963635 0.267222 0 0.255903 0.966702 0 0.939531 0.342465 0 0.0790334 0.996872 0 0.909441 0.415833 0 0.414378 0.910105 0 0.993234 0.116131 0 0.994161 0.107908 0 0.49976 0.866164 0 0.864554 0.50254 0 0.116025 0.993246 0 0.959058 0.283211 0 0.150904 0.988548 0 0.989573 0.144032 0 0.97771 0.20996 0 0.483308 0.87545 0 0.989911 0.141693 0 0.913802 0.406161 0 0.423004 0.906128 0 0.469106 0.883142 0 0.842228 0.539122 0 0.997676 0.0681437 0 0.886526 0.462678 0 0.464765 0.885434 0 0.99999 0.00457214 0 0.999639 0.0268807 0 0.401683 0.915779 0 0.501979 0.86488 0 0.506963 0.861968 0 0.861618 0.507558 0 0.998029 0.0627481 0 0.861525 0.507716 0 0.507645 0.861566 0 0.789674 0.613526 0 0.472698 0.881224 0 0.091769 0.99578 0 0.999738 0.0229009 0 0.00413413 0.999991 0 0.0518363 0.998656 0 0.434236 0.900799 0 0.34737 0.937728 0 0.501582 0.86511 0 0.10431 0.994545 0 0.797692 0.603065 0 0.878388 0.477949 0 0.47786 0.878436 0 0.871765 0.489924 0 0.90228 0.43115 0 0.430693 0.902498 0 0.997195 0.0748408 0 0.866611 0.498984 0 0.498949 0.866631 0 0.0367115 0.999326 0 0.322079 0.946713 0 0.977421 0.2113 0 0.0692133 0.997602 0 0.665898 0.746043 0 0.970813 0.239838 0 0.99994 0.01092 0 0.500225 0.865896 0 0.0172026 0.999852 0 0.507551 0.861622 0 0.00782056 0.999969 0 0.501136 0.865369 0 0.728161 0.685406 0 0.618359 0.785896 0 0.997371 0.0724609 0 0.181706 0.983353 0 0.873767 0.486346 0 0.000348512 1 0 0.962876 0.269944 0 0.261189 0.965288 0 0.493714 0.869624 0 0.869136 0.494572 0 0.999876 0.0157171 0 0.999995 0.00325651 0 0.99123 0.132149 0 0.120533 0.992709 0 0.122984 0.992409 0 0.999998 0.00205181 0 0.0834143 0.996515 0 0.880871 0.473356 0 0.999132 0.0416469 0 0.99991 0.0133799 0 0.911289 0.411768 0 0.413053 0.910707 0 0.997809 0.066167 0 0.0592351 0.998244 0 0.322944 0.946418 0 0.862969 0.505257 0 0.0131313 0.999914 0 0.957553 0.288257 0 0.283738 0.958902 0 0.985019 0.172447 0 0.803192 0.59572 0 0.0197025 0.999806 0 0.954458 0.298347 0 0.477939 0.878393 0 0.468067 0.883693 0 0.885618 0.464414 0 0.247415 0.96891 0 0.0711359 0.997467 0 0.714669 0.699462 0 0.871837 0.489796 0 0.487202 0.873289 0 0.922794 0.385293 0 0.390495 0.920605 0 0.880027 0.474923 0 0.47398 0.880535 0 0.432006 0.901871 0 0.405051 0.914294 0 0.990152 0.139995 0 0.441491 0.897266 0 0.898511 0.438951 0 0.0803451 0.996767 0 0.926987 0.375094 0 0.999859 0.0167793 0 0.591771 0.806106 0 0.998461 0.0554634 0 0.981043 0.193789 0 0.182253 0.983252 0 0.0176039 0.999845 0 0.99999 0.00453877 0 0.999836 0.0181132 0 0.444293 0.895881 0 0.890755 0.454484 0 0.862258 0.506469 0 0.506324 0.862344 0 0.864431 0.502751 0 0.502183 0.864761 0 0.898462 0.439052 0 0.0454627 0.998966 0 0.415826 0.909444 0 0.0510546 0.998696 0 0.999841 0.0178056 0 0.855165 0.518356 0 0.203928 0.978986 0 0.026404 0.999651 0 0.999633 0.027107 0 0.059369 0.998236 0 0.302199 0.953245 0 0.996179 0.087337 0 0.992912 0.11885 0 0.113373 0.993552 0 0.999116 0.0420374 0 0.213023 0.977047 0 0.906281 0.422676 0 0.95503 0.296508 0 0.907731 0.419552 0 0.00127494 0.999999 0 0.97793 0.208931 0 0.895075 0.445915 0 0.44553 0.895267 0 0.0711521 0.997465 0 0.156737 0.98764 0 0.470412 0.882447 0 0.871768 0.489918 0 0.434793 0.90053 0 0.963859 0.266414 0 0.260191 0.965557 0 0.873584 0.486673 0 0.482627 0.875826 0 0.878728 0.477324 0 0.156908 0.987613 0 0.461811 0.886978 0 0.998981 0.0451387 0 0.941638 0.336627 0 0.0151411 0.999885 0 0.475035 0.879967 0 0.969298 0.245889 0 0.095515 0.995428 0 0.00175027 0.999998 0 0.476567 0.879138 0 0.977255 0.212067 0 0.999891 0.0147667 0 0.0332474 0.999447 0 0.988231 0.152968 0 0.966889 0.255197 0 0.794416 0.607374 0 0.404556 0.914513 0 0.358639 0.933476 0 0.503598 0.863938 0 0.991076 0.133301 0 0.0195991 0.999808 0 0.364213 0.931316 0 0.0318768 0.999492 0 0.999988 0.00485268 0 0.86766 0.497158 0 0.496387 0.868102 0 0.998082 0.0618995 0 0.90874 0.417362 0 0.416038 0.909347 0 0.99415 0.10801 0 0.536008 0.844213 0 0.937926 0.346835 0 0.130343 0.991469 0 0.256722 0.966485 0 0.996548 0.0830242 0 0.939536 0.342451 0 0.337444 0.941345 0 0.862424 0.506187 0 0.290803 0.956783 0 0.258572 0.965992 0 0.510072 0.860132 0 0.860094 0.510136 0 0.984489 0.175444 0 0.998977 0.0452102 0 0.0123571 0.999924 0 0.873769 0.486341 0 0.143171 0.989698 0 0.841694 0.539955 0 0.999988 0.00493577 0 0.571517 0.82059 0 0.997632 0.0687752 0 0.602443 0.798162 0 0.985659 0.168749 0 0.501826 0.864969 0 0.9938 0.111183 0 0.00992073 0.999951 0 0.994069 0.10875 0 0.100471 0.99494 0 0.924555 0.381049 0 0.0189322 0.999821 0 0.899098 0.437748 0 0.441457 0.897282 0 0.258699 0.965958 0 0.777954 0.628321 0 
VECTORS VY float