# vtk DataFile Version 3.0
Generated by GMDS VTK Writer

ASCII
DATASET UNSTRUCTURED_GRID
POINTS 269 float
0 0 0
0 5 0
1 5 0
1 0 0
5 2 0
5 3 0
4 3 0
4 2 0
0 0.294118 0
0 0.588235 0
0 0.882353 0
0 1.17647 0
0 1.47059 0
0 1.76471 0
0 2.05882 0
0 2.35294 0
0 2.64706 0
0 2.94118 0
0 3.23529 0
0 3.52941 0
0 3.82353 0
0 4.11765 0
0 4.41176 0
0 4.70588 0
0.287931 4.99734 0
0.572588 4.95606 0
0.848852 4.87531 0
1.11638 4.76892 0
1.37628 4.64497 0
1.6303 4.50934 0
1.88078 4.36726 0
2.1292 4.22159 0
2.37652 4.07406 0
2.62348 3.92594 0
2.8708 3.77841 0
3.11922 3.63274 0
3.3697 3.49066 0
3.62372 3.35503 0
3.88362 3.23108 0
4.15115 3.12469 0
4.42741 3.04394 0
4.71207 3.00266 0
0.287931 0.00266285 0
0.572588 0.0439352 0
0.848852 0.124689 0
1.11638 0.231083 0
1.37628 0.355027 0
1.6303 0.490658 0
1.88078 0.632736 0
2.1292 0.778407 0
2.37652 0.925942 0
2.62348 1.07406 0
2.8708 1.22159 0
3.11922 1.36726 0
3.3697 1.50934 0
3.62372 1.64497 0
3.88362 1.76892 0
4.15115 1.87531 0
4.42741 1.95606 0
4.71207 1.99734 0
5 2.75 0
5 2.5 0
5 2.25 0
1.6874 2.49633 0
2.82035 2.52188 0
1.11938 1.51008 0
1.1215 3.54581 0
2.27316 3.15757 0
2.22421 1.83267 0
0.868714 2.34152 0
3.60709 2.5 0
0.745142 0.877185 0
0.747857 4.0959 0
1.79438 1.41534 0
1.79438 3.58466 0
0.728715 2.97144 0
2.86463 3.11169 0
2.8655 1.90741 0
1.60418 1.91862 0
1.53845 3.02818 0
4.1837 2.49915 0
0.590171 1.77151 0
1.31132 0.966975 0
1.35651 4.09099 0
2.27865 2.59829 0
0.522515 3.51702 0
1.16737 2.72787 0
3.34383 2.03905 0
3.33817 2.93291 0
0.432011 1.27856 0
2.26367 1.38249 0
2.26367 3.61751 0
0.442589 0.490373 0
0.462322 4.49874 0
0.460087 2.56913 0
1.3174 2.28109 0
4.63933 2.6044 0
2.50866 2.22148 0
2.06344 2.2114 0
1.95248 2.86805 0
1.04371 1.93419 0
3.90386 2.79164 0
3.91824 2.21969 0
0.390265 2.155 0
2.6349 1.55737 0
2.62798 3.43428 0
1.12642 0.622096 0
1.09695 4.36355 0
0.42582 3.93833 0
2.55832 2.76816 0
3.20732 2.42324 0
1.70337 0.982702 0
1.70337 4.0173 0
0.373814 3.2175 0
0.895411 1.27839 0
1.91782 1.72026 0
1.89577 3.34864 0
1.03612 3.11862 0
0.962261 3.82952 0
0.372972 0.937665 0
1.43505 1.3083 0
1.43505 3.6917 0
2.03856 1.11559 0
2.03856 3.88441 0
3.02035 2.78925 0
4.55156 2.19576 0
0.808037 2.63383 0
0.371242 2.90902 0
3.1578 3.20545 0
3.14838 1.81033 0
0.297719 1.5758 0
0.752978 0.456374 0
0.755161 4.54308 0
2.95679 2.2659 0
1.48343 2.75805 0
0.786108 3.2817 0
3.67773 2.00617 0
3.68312 3.03627 0
1.57862 1.55054 0
1.59705 3.40312 0
4.21521 2.81308 0
0.821105 1.56572 0
0.259836 4.24052 0
4.75065 2.38412 0
1.68954 2.19854 0
1.3718 0.66183 0
1.36445 4.33891 0
1.29848 1.73894 0
1.29581 3.25549 0
2.53493 1.93615 0
2.56674 3.12849 0
4.20812 2.19581 0
0.237728 3.68643 0
0.78404 2.04779 0
2.92486 1.61313 0
2.96554 3.38131 0
0.980875 0.994675 0
0.287864 1.92761 0
3.90545 2.5 0
2.53765 2.5 0
2.26269 2.88844 0
0.845201 3.55709 0
0.700731 3.78757 0
1.98295 2.5 0
1.09729 2.45105 0
1.17809 1.25448 0
0.286317 0.270188 0
0.288419 4.72814 0
3.32602 2.6246 0
0.256112 0.687069 0
1.26594 2.96513 0
3.54154 2.24074 0
1.08637 4.12193 0
2.55234 1.34868 0
2.55135 3.65012 0
0.267473 2.41639 0
2.14731 1.61138 0
2.1482 3.35935 0
3.38892 1.7632 0
3.39044 3.24183 0
1.87114 2.06152 0
1.38049 2.50829 0
0.589704 2.30786 0
0.188375 1.31971 0
2.28789 2.08815 0
1.31666 2.0291 0
2.72865 2.1318 0
2.42427 1.634 0
2.39803 3.37328 0
3.65326 2.7486 0
1.61862 0.811469 0
1.62302 4.21392 0
4.76653 2.77824 0
1.07058 2.1822 0
0.593906 0.287122 0
0.59332 4.71384 0
0.647925 1.10947 0
0.569846 0.687248 0
4.49421 2.79636 0
0.958597 2.88553 0
0.570268 1.52643 0
0.55471 4.26594 0
0.219321 3.40577 0
1.78944 2.77102 0
0.845623 1.80095 0
2.27636 1.14341 0
2.27636 3.85659 0
0.194197 3.10165 0
0.241064 2.67317 0
1.88474 0.909023 0
1.89749 4.09425 0
1.24446 3.81324 0
3.10396 2.0381 0
2.01714 1.40433 0
1.99575 3.60866 0
2.27654 2.35322 0
2.04579 3.09519 0
0.213598 4.50134 0
0.598251 2.76377 0
1.80315 3.06399 0
1.53005 2.33533 0
2.80375 2.87101 0
3.11748 2.99776 0
3.95777 3.00874 0
3.96334 2.00538 0
1.64168 1.23996 0
1.64475 3.75232 0
0.905481 0.699051 0
0.87543 4.3276 0
4.82477 2.59446 0
1.33295 1.48651 0
1.36053 3.47838 0
0.202521 1.11272 0
4.80848 2.17786 0
3.04322 2.55753 0
1.01153 0.42482 0
0.999981 4.56794 0
4.43468 2.49838 0
0.992518 3.33901 0
0.17151 3.96817 0
1.02566 1.70998 0
0.18912 2.18215 0
2.07173 2.70285 0
2.68155 2.33875 0
3.22049 2.2314 0
2.8032 1.42486 0
2.80992 3.55024 0
0.192977 0.473268 0
2.69745 1.76083 0
0.543871 2.00451 0
3.73162 2.3306 0
4.06505 2.33965 0
2.0729 1.9828 0
0.591309 3.1741 0
4.05205 2.65097 0
1.14706 0.81564 0
3.17806 3.4202 0
3.17746 1.58511 0
1.20048 0.458971 0
1.19081 4.53686 0
3.38049 2.40399 0
0.683966 1.35488 0
2.7633 3.28117 0
1.54201 1.06188 0
1.50119 3.92991 0
1.84664 1.17782 0
1.84572 3.8236 0
1.49156 2.15254 0
1.85792 2.32623 0

CELLS 469 1876
3 219 79 139 
3 116 219 139 
3 125 151 237 
3 94 126 182 
3 73 138 115 
3 74 116 139 
3 85 253 113 
3 78 115 138 
3 64 109 221 
3 72 162 108 
3 72 108 201 
3 85 108 162 
3 107 146 172 
3 83 172 146 
3 85 113 202 
3 59 125 233 
3 109 160 150 
3 75 135 117 
3 58 125 59 
3 225 138 73 
3 226 74 139 
3 237 151 80 
3 120 138 225 
3 121 226 139 
3 85 152 108 
3 0 166 42 
3 1 24 167 
3 85 135 253 
3 64 159 109 
3 84 109 159 
3 69 182 126 
3 88 168 124 
3 49 122 205 
3 31 206 123 
3 0 8 166 
3 1 167 23 
3 49 205 50 
3 31 32 206 
3 84 160 109 
3 65 114 141 
3 67 150 160 
3 124 168 234 
3 92 197 131 
3 131 197 227 
3 73 115 213 
3 74 214 116 
3 237 96 143 
3 94 218 126 
3 199 170 86 
3 117 170 199 
3 93 132 201 
3 65 165 114 
3 71 196 156 
3 114 156 196 
3 78 180 115 
3 125 143 233 
3 82 190 145 
3 83 146 191 
3 64 221 124 
3 85 202 152 
3 79 203 134 
3 82 263 190 
3 83 191 264 
3 125 237 143 
3 43 166 194 
3 25 195 167 
3 10 119 169 
3 42 166 43 
3 24 25 167 
3 66 118 211 
3 132 228 201 
3 68 176 115 
3 109 150 221 
3 252 68 115 
3 72 172 118 
3 140 198 237 
3 12 13 130 
3 66 161 118 
3 72 118 162 
3 75 117 199 
3 79 219 203 
3 71 119 196 
3 89 196 119 
3 37 38 137 
3 55 136 56 
3 71 197 119 
3 75 127 253 
3 89 119 232 
3 81 130 157 
3 113 253 127 
3 88 137 189 
3 80 140 237 
3 76 221 150 
3 58 151 125 
3 82 165 120 
3 15 16 175 
3 10 232 119 
3 86 164 126 
3 69 126 164 
3 98 163 215 
3 110 133 234 
3 17 127 208 
3 64 234 133 
3 99 216 160 
3 5 60 192 
3 88 189 168 
3 16 208 175 
3 51 173 52 
3 33 34 174 
3 76 155 128 
3 77 129 154 
3 13 157 130 
3 156 255 227 
3 163 203 242 
3 66 211 231 
3 63 181 134 
3 52 173 245 
3 34 246 174 
3 82 120 263 
3 51 205 173 
3 33 174 206 
3 78 138 147 
3 128 256 179 
3 129 178 257 
3 153 249 182 
3 37 137 179 
3 55 178 136 
3 110 234 168 
3 256 36 179 
3 257 178 54 
3 108 142 201 
3 121 231 211 
3 70 189 158 
3 5 192 41 
3 97 149 184 
3 68 184 149 
3 21 22 142 
3 64 124 234 
3 101 158 189 
3 71 156 227 
3 44 131 235 
3 26 236 132 
3 48 190 209 
3 30 210 191 
3 50 205 51 
3 32 33 206 
3 99 160 242 
3 79 148 139 
3 16 17 208 
3 39 40 140 
3 84 215 163 
3 69 153 182 
3 99 242 203 
3 88 124 222 
3 90 122 213 
3 91 214 123 
3 91 174 188 
3 90 187 173 
3 102 136 250 
3 41 192 198 
3 61 62 143 
3 49 209 122 
3 31 123 210 
3 85 161 135 
3 46 145 47 
3 28 29 146 
3 63 203 163 
3 90 205 122 
3 91 123 206 
3 100 153 193 
3 69 193 153 
3 19 20 152 
3 103 182 249 
3 120 165 230 
3 64 133 243 
3 75 218 127 
3 57 151 58 
3 65 230 165 
3 66 148 238 
3 117 238 148 
3 39 140 223 
3 268 98 180 
3 144 268 180 
3 111 209 190 
3 112 191 210 
3 44 194 131 
3 26 132 195 
3 106 227 255 
3 171 244 260 
3 101 223 140 
3 105 188 174 
3 104 173 187 
3 87 244 171 
3 94 127 218 
3 75 199 126 
3 13 14 157 
3 78 144 180 
3 89 183 130 
3 86 134 181 
3 149 248 187 
3 80 151 251 
3 115 176 213 
3 116 214 177 
3 44 235 45 
3 26 27 236 
3 12 130 183 
3 20 239 152 
3 117 148 170 
3 67 160 216 
3 81 157 249 
3 68 149 187 
3 87 178 129 
3 88 128 179 
3 86 126 199 
3 87 136 178 
3 88 179 137 
3 63 220 181 
3 75 126 218 
3 76 222 221 
3 79 134 170 
3 136 171 250 
3 9 10 169 
3 86 170 134 
3 76 128 222 
3 94 208 127 
3 113 127 207 
3 77 212 129 
3 124 221 222 
3 17 207 127 
3 40 41 198 
3 83 211 172 
3 75 253 135 
3 82 156 165 
3 89 130 200 
3 81 200 130 
3 118 172 211 
3 108 152 239 
3 100 193 185 
3 118 161 162 
3 88 222 128 
3 36 37 179 
3 54 178 55 
3 110 244 133 
3 87 171 136 
3 85 162 161 
3 114 165 156 
3 87 129 212 
3 56 136 224 
3 38 223 137 
3 102 224 136 
3 101 137 223 
3 77 133 212 
3 100 185 147 
3 77 186 133 
3 22 217 142 
3 92 131 194 
3 93 195 132 
3 94 182 175 
3 103 175 182 
3 117 135 238 
3 122 265 213 
3 123 214 266 
3 89 232 183 
3 53 245 154 
3 35 155 246 
3 18 202 207 
3 92 194 166 
3 93 167 195 
3 63 134 203 
3 101 189 137 
3 52 245 53 
3 34 35 246 
3 96 198 192 
3 104 187 248 
3 133 186 243 
3 73 213 265 
3 74 266 214 
3 72 228 172 
3 67 216 177 
3 116 177 216 
3 57 224 151 
3 102 151 224 
3 22 23 217 
3 14 241 157 
3 79 170 148 
3 121 211 264 
3 43 194 44 
3 25 26 195 
3 113 207 202 
3 77 149 186 
3 97 186 149 
3 23 167 217 
3 77 154 248 
3 71 227 197 
3 86 181 164 
3 108 239 142 
3 21 142 239 
3 40 198 140 
3 138 230 147 
3 95 185 193 
3 99 203 219 
3 115 180 252 
3 65 141 240 
3 76 262 155 
3 105 150 188 
3 45 258 46 
3 27 28 259 
3 81 141 200 
3 67 188 150 
3 4 59 233 
3 29 30 191 
3 47 190 48 
3 96 237 198 
3 120 230 138 
3 121 139 231 
3 95 193 164 
3 47 145 190 
3 29 191 146 
3 111 190 263 
3 112 264 191 
3 78 147 185 
3 69 164 193 
3 93 201 142 
3 72 201 228 
3 80 254 140 
3 101 140 254 
3 10 11 232 
3 93 142 217 
3 60 61 229 
3 81 204 141 
3 98 215 184 
3 103 157 241 
3 106 255 145 
3 82 145 255 
3 46 258 145 
3 28 146 259 
3 90 173 205 
3 91 206 174 
3 83 264 211 
3 103 249 157 
3 4 233 62 
3 70 168 189 
3 107 172 228 
3 18 19 202 
3 104 248 154 
3 114 261 141 
3 97 215 159 
3 84 159 215 
3 11 12 183 
3 48 209 49 
3 30 31 210 
3 65 240 147 
3 100 147 240 
3 90 176 187 
3 91 188 177 
3 65 147 230 
3 95 164 181 
3 45 235 258 
3 27 259 236 
3 104 245 173 
3 105 174 246 
3 63 144 220 
3 100 204 153 
3 92 169 197 
3 81 153 204 
3 61 143 229 
3 106 145 258 
3 107 259 146 
3 119 197 169 
3 78 267 144 
3 19 152 202 
3 63 268 144 
3 139 148 231 
3 94 175 208 
3 62 233 143 
3 66 231 148 
3 84 242 160 
3 135 161 238 
3 66 238 161 
3 60 229 192 
3 105 262 150 
3 76 150 262 
3 70 158 250 
3 77 248 149 
3 53 154 257 
3 35 256 155 
3 129 257 154 
3 128 155 256 
3 8 9 247 
3 96 229 143 
3 17 18 207 
3 92 166 247 
3 106 235 227 
3 107 228 236 
3 131 227 235 
3 132 236 228 
3 14 15 241 
3 104 154 245 
3 102 251 151 
3 81 249 153 
3 102 250 158 
3 68 187 176 
3 67 177 188 
3 155 262 246 
3 105 246 262 
3 92 247 169 
3 80 251 158 
3 102 158 251 
3 80 158 254 
3 101 254 158 
3 8 247 166 
3 38 39 223 
3 56 224 57 
3 82 255 156 
3 95 181 220 
3 93 217 167 
3 20 21 239 
3 97 159 243 
3 64 243 159 
3 70 260 168 
3 110 168 260 
3 84 163 242 
3 110 260 244 
3 53 257 54 
3 35 36 256 
3 63 163 268 
3 98 268 163 
3 90 213 176 
3 91 177 214 
3 15 175 241 
3 141 204 240 
3 97 184 215 
3 120 225 263 
3 121 264 226 
3 95 267 185 
3 98 252 180 
3 9 169 247 
3 98 184 252 
3 11 183 232 
3 103 241 175 
3 70 250 171 
3 114 196 261 
3 116 216 219 
3 89 261 196 
3 122 209 265 
3 123 266 210 
3 111 265 209 
3 112 210 266 
3 70 171 260 
3 95 220 267 
3 96 192 229 
3 141 261 200 
3 99 219 216 
3 97 243 186 
3 68 252 184 
3 87 212 244 
3 133 244 212 
3 78 185 267 
3 100 240 204 
3 106 258 235 
3 107 236 259 
3 89 200 261 
3 73 265 225 
3 74 226 266 
3 144 267 220 
3 111 263 225 
3 112 226 264 
3 111 225 265 
3 112 266 226 

CELL_TYPES 469
5 
5 
5 
5 
5 
5 
5 
5 
5 
5 
5 
5 
5 
5 
5 
5 
5 
5 
5 
5 
5 
5 
5 
5 
5 
5 
5 
5 
5 
5 
5 
5 
5 
5 
5 
5 
5 
5 
5 
5 
5 
5 
5 
5 
5 
5 
5 
5 
5 
5 
5 
5 
5 
5 
5 
5 
5 
5 
5 
5 
5 
5 
5 
5 
5 
5 
5 
5 
5 
5 
5 
5 
5 
5 
5 
5 
5 
5 
5 
5 
5 
5 
5 
5 
5 
5 
5 
5 
5 
5 
5 
5 
5 
5 
5 
5 
5 
5 
5 
5 
5 
5 
5 
5 
5 
5 
5 
5 
5 
5 
5 
5 
5 
5 
5 
5 
5 
5 
5 
5 
5 
5 
5 
5 
5 
5 
5 
5 
5 
5 
5 
5 
5 
5 
5 
5 
5 
5 
5 
5 
5 
5 
5 
5 
5 
5 
5 
5 
5 
5 
5 
5 
5 
5 
5 
5 
5 
5 
5 
5 
5 
5 
5 
5 
5 
5 
5 
5 
5 
5 
5 
5 
5 
5 
5 
5 
5 
5 
5 
5 
5 
5 
5 
5 
5 
5 
5 
5 
5 
5 
5 
5 
5 
5 
5 
5 
5 
5 
5 
5 
5 
5 
5 
5 
5 
5 
5 
5 
5 
5 
5 
5 
5 
5 
5 
5 
5 
5 
5 
5 
5 
5 
5 
5 
5 
5 
5 
5 
5 
5 
5 
5 
5 
5 
5 
5 
5 
5 
5 
5 
5 
5 
5 
5 
5 
5 
5 
5 
5 
5 
5 
5 
5 
5 
5 
5 
5 
5 
5 
5 
5 
5 
5 
5 
5 
5 
5 
5 
5 
5 
5 
5 
5 
5 
5 
5 
5 
5 
5 
5 
5 
5 
5 
5 
5 
5 
5 
5 
5 
5 
5 
5 
5 
5 
5 
5 
5 
5 
5 
5 
5 
5 
5 
5 
5 
5 
5 
5 
5 
5 
5 
5 
5 
5 
5 
5 
5 
5 
5 
5 
5 
5 
5 
5 
5 
5 
5 
5 
5 
5 
5 
5 
5 
5 
5 
5 
5 
5 
5 
5 
5 
5 
5 
5 
5 
5 
5 
5 
5 
5 
5 
5 
5 
5 
5 
5 
5 
5 
5 
5 
5 
5 
5 
5 
5 
5 
5 
5 
5 
5 
5 
5 
5 
5 
5 
5 
5 
5 
5 
5 
5 
5 
5 
5 
5 
5 
5 
5 
5 
5 
5 
5 
5 
5 
5 
5 
5 
5 
5 
5 
5 
5 
5 
5 
5 
5 
5 
5 
5 
5 
5 
5 
5 
5 
5 
5 
5 
5 
5 
5 
5 
5 
5 
5 
5 
5 
5 
5 
5 
5 
5 
5 
5 
5 
5 
5 
5 
5 
5 
5 
5 
5 
5 
5 
5 
5 
5 
5 
5 
5 
5 
5 
5 
5 
5 
5 
5 
5 
5 
5 
5 
5 
5 
5 
5 
5 
5 
5 
5 
POINT_DATA 269
SCALARS GMDS_ID int 1
LOOKUP_TABLE default
0 1 2 3 4 5 6 7 8 9 10 11 12 13 14 15 16 17 18 19 20 21 22 23 24 25 26 27 28 29 30 31 32 33 34 35 36 37 38 39 40 41 42 43 44 45 46 47 48 49 50 51 52 53 54 55 56 57 58 59 60 61 62 63 64 65 66 67 68 69 70 71 72 73 74 75 76 77 78 79 80 81 82 83 84 85 86 87 88 89 90 91 92 93 94 95 96 97 98 99 100 101 102 103 104 105 106 107 108 109 110 111 112 113 114 115 116 117 118 119 120 121 122 123 124 125 126 127 128 129 130 131 132 133 134 135 136 137 138 139 140 141 142 143 144 145 146 147 148 149 150 151 152 153 154 155 156 157 158 159 160 161 162 163 164 165 166 167 168 169 170 171 172 173 174 175 176 177 178 179 180 181 182 183 184 185 186 187 188 189 190 191 192 193 194 195 196 197 198 199 200 201 202 203 204 205 206 207 208 209 210 211 212 213 214 215 216 217 218 219 220 221 222 223 224 225 226 227 228 229 230 231 232 233 234 235 236 237 238 239 240 241 242 243 244 245 246 247 248 249 250 251 252 253 254 255 256 257 258 259 260 261 262 263 264 265 266 267 268 
SCALARS angle float 1
LOOKUP_TABLE default
0 0 0 0 0 0 0 0 0 0 0 0 0 0 0 0 0 0 0 0 0 0 0 0 5.97672 5.42645 4.95738 4.63616 4.41235 4.27042 4.19055 4.14672 4.12697 4.12697 4.14672 4.19055 4.27042 4.41235 4.63616 4.95738 5.42645 5.97672 0.306469 0.856738 1.32581 1.64703 1.87083 2.01276 2.09263 2.13647 2.15621 2.15621 2.13647 2.09263 2.01276 1.87083 1.64703 1.32581 0.856738 0.306469 0 0 0 3.06244 3.2144 1.22026 5.33974 4.12475 2.17297 0.104906 3.16233 0.90845 5.59888 1.98817 4.36659 6.10546 4.11601 2.1802 1.79262 4.83264 0.045719 0.315651 1.65518 4.69016 3.41798 6.05483 5.97836 2.04874 4.23078 0.352018 2.12274 4.17734 0.656296 5.66762 6.26912 0.607281 6.1304 2.494 2.38989 4.10084 0.680276 4.86557 1.42342 0.0697402 2.14392 4.14704 1.457 4.97023 6.03547 3.77965 2.81587 1.98415 4.34542 6.19208 0.973043 2.05208 4.31328 5.77532 5.44313 0.375283 1.74168 4.71157 2.08757 4.21841 3.91789 0.639307 6.21758 6.23096 4.21739 2.07789 0.174121 1.08111 5.27449 2.48279 5.25066 5.94408 1.73942 4.56006 1.83006 4.59438 5.4032 0.688298 6.07088 0.151397 1.94526 1.71733 4.63496 1.37884 5.20675 2.23597 4.08907 1.06379 6.17854 0.281422 2.11396 4.18178 1.20433 0.101131 6.27526 3.13285 3.95778 5.75565 5.82033 3.13778 0.0586637 1.4281 0.388941 5.92441 3.74759 0.327715 5.54488 1.99966 5.08774 2.14216 4.14712 0.00646833 2.11464 4.19769 1.98408 4.30676 2.11475 6.26232 0.0613453 0.136488 2.32332 1.11007 2.35982 2.14985 4.15087 4.47384 1.9417 4.3733 6.14583 0.395088 0.931956 5.38449 0.676845 0.75376 5.63698 6.0125 0.412446 5.72725 6.21734 4.21274 0.541788 2.13082 4.16162 6.25332 6.27179 2.06892 4.22717 4.96408 2.17244 2.07233 4.256 2.72815 4.18275 6.01466 6.21173 4.36883 1.26706 3.94819 4.14651 4.81275 1.46899 1.91845 4.45424 1.18232 5.27449 6.25052 1.57003 4.93337 0.148682 0.111636 3.35974 1.4376 4.92578 0.0498169 5.68609 6.21449 0.896676 0.0272442 3.7487 2.70051 2.30245 2.13057 4.15799 0.209713 2.16486 0.1748 1.72279 0.983621 2.19088 6.11095 5.40108 1.46056 4.22656 2.0589 1.54292 4.79519 2.62589 0.622247 4.14053 1.87161 4.54764 2.02677 4.30173 1.42755 2.4367 
VECTORS cross_X float
1 0 0 1 0 0 1 0 0 1 0 0 1 0 0 1 0 0 1 0 0 1 0 0 1 0 0 1 0 0 1 0 0 1 0 0 1 0 0 1 0 0 1 0 0 1 0 0 1 0 0 1 0 0 1 0 0 1 0 0 1 0 0 1 0 0 1 0 0 1 0 0 0.0765422 0.997066 0 0.212551 0.97715 0 0.325417 0.945571 0 0.40022 0.916419 0 0.450841 0.892604 0 0.482224 0.876048 0 0.499618 0.866246 0 0.509082 0.860718 0 0.513323 0.858195 0 0.513323 0.858195 0 0.509082 0.860718 0 0.499618 0.866246 0 0.482224 0.876048 0 0.450841 0.892604 0 0.40022 0.916419 0 0.325417 0.945571 0 0.212551 0.97715 0 0.0765422 0.997066 0 0.997066 0.0765422 0 0.97715 0.212551 0 0.945571 0.325417 0 0.916419 0.40022 0 0.892604 0.450841 0 0.876048 0.482224 0 0.866246 0.499618 0 0.860718 0.509082 0 0.858195 0.513323 0 0.858195 0.513323 0 0.860718 0.509082 0 0.866246 0.499618 0 0.876048 0.482224 0 0.892604 0.450841 0 0.916419 0.40022 0 0.945571 0.325417 0 0.97715 0.212551 0 0.997066 0.0765422 0 1 0 0 1 0 0 1 0 0 0.72096 0.692977 0 0.694119 0.71986 0 0.953828 0.300355 0 0.23368 0.972314 0 0.513801 0.857909 0 0.856037 0.516914 0 0.999656 0.0262234 0 0.703432 0.710762 0 0.974321 0.225165 0 0.170243 0.985402 0 0.878997 0.476828 0 0.461024 0.887388 0 0.0444168 0.999013 0 0.515674 0.856785 0 0.855101 0.518461 0 0.901248 0.433304 0 0.354741 0.934965 0 0.999935 0.0114295 0 0.996888 0.0788309 0 0.915602 0.402087 0 0.387812 0.921738 0 0.656599 0.75424 0 0.0570576 0.998371 0 0.0761314 0.997098 0 0.871676 0.490083 0 0.490881 0.871226 0 0.99613 0.0878909 0 0.862461 0.506124 0 0.502477 0.864591 0 0.98657 0.163339 0 0.153285 0.988182 0 0.00351634 0.999994 0 0.988497 0.151238 0 0.0381865 0.999271 0 0.81184 0.583879 0 0.82676 0.562555 0 0.51892 0.854823 0 0.985573 0.16925 0 0.347032 0.937853 0 0.937349 0.348392 0 0.999848 0.0174342 0 0.859768 0.510684 0 0.509011 0.86076 0 0.934391 0.356249 0 0.322377 0.946611 0 0.0618901 0.998083 0 0.585814 0.810446 0 0.762281 0.647246 0 0.879476 0.475944 0 0.465714 0.884935 0 0.0227738 0.999741 0 0.970558 0.240869 0 0.871266 0.490811 0 0.472809 0.881165 0 0.126625 0.991951 0 0.208473 0.978028 0 0.995602 0.0936832 0 0.906693 0.421791 0 0.382872 0.923802 0 0.866877 0.498522 0 0.493573 0.869704 0 0.55746 0.830204 0 0.987255 0.159147 0 0.0163999 0.999866 0 0.0130561 0.999915 0 0.493795 0.869578 0 0.868081 0.496422 0 0.999053 0.0435166 0 0.963697 0.266999 0 0.249508 0.968373 0 0.813473 0.581602 0 0.255274 0.966869 0 0.0846737 0.996409 0 0.906931 0.421279 0 0.41758 0.90864 0 0.897153 0.44172 0 0.409769 0.912189 0 0.218227 0.975898 0 0.985232 0.171227 0 0.0530515 0.998592 0 0.999284 0.0378401 0 0.884061 0.467371 0 0.909244 0.416264 0 0.400495 0.916299 0 0.941174 0.337923 0 0.265873 0.964008 0 0.84779 0.530332 0 0.521432 0.853293 0 0.964844 0.262823 0 0.0261589 0.999658 0 0.997526 0.0702976 0 0.863569 0.504231 0 0.501517 0.865148 0 0.955016 0.296554 0 0.99968 0.02528 0 0.00198091 0.999998 0 0.70865 0.70556 0 0.549155 0.835721 0 0.131501 0.991316 0 0.115455 0.993313 0 0.707781 0.706432 0 0.999892 0.0146654 0 0.936941 0.349489 0 0.995276 0.0970821 0 0.0895742 0.99598 0 0.592291 0.805724 0 0.996646 0.0818372 0 0.183531 0.983014 0 0.877623 0.479352 0 0.294433 0.955672 0 0.859993 0.510305 0 0.508995 0.86077 0 0.999999 0.00161708 0 0.863484 0.504377 0 0.498071 0.867136 0 0.879484 0.475929 0 0.474246 0.880392 0 0.86347 0.504399 0 0.00521568 0.999986 0 0.999882 0.0153357 0 0.999418 0.0341155 0 0.836007 0.548718 0 0.961739 0.273968 0 0.830966 0.556324 0 0.859011 0.511958 0 0.508188 0.861246 0 0.437069 0.899428 0 0.884477 0.466585 0 0.459536 0.888159 0 0.0343327 0.99941 0 0.995126 0.0986114 0 0.972981 0.230887 0 0.222788 0.974867 0 0.985718 0.168405 0 0.982298 0.187327 0 0.16085 0.986979 0 0.0676198 0.997711 0 0.994689 0.102929 0 0.138538 0.990357 0 0.0164617 0.999864 0 0.494807 0.869003 0 0.990841 0.135033 0 0.861437 0.507865 0 0.505871 0.862609 0 0.00746686 0.999972 0 0.00284914 0.999996 0 0.869192 0.494474 0 0.491667 0.870784 0 0.323831 0.946115 0 0.856106 0.5168 0 0.86877 0.495216 0 0.485378 0.874304 0 0.77629 0.630376 0 0.501306 0.86527 0 0.067081 0.997748 0 0.0178626 0.99984 0 0.460526 0.887646 0 0.950248 0.311494 0 0.551156 0.834402 0 0.509125 0.860693 0 0.359385 0.933189 0 0.933319 0.359047 0 0.887173 0.461436 0 0.441471 0.897276 0 0.956633 0.291294 0 0.249509 0.968373 0 0.00816747 0.999967 0 0.923952 0.382507 0 0.331087 0.9436 0 0.999309 0.0371619 0 0.999611 0.0279054 0 0.667512 0.744599 0 0.936108 0.351712 0 0.332874 0.942971 0 0.999922 0.0124539 0 0.148721 0.988879 0 0.0171732 0.999853 0 0.974979 0.222296 0 0.999977 0.00681099 0 0.592068 0.805888 0 0.780627 0.624998 0 0.838859 0.544349 0 0.861469 0.507811 0 0.506654 0.862149 0 0.998626 0.0524042 0 0.857084 0.515177 0 0.999045 0.043686 0 0.908675 0.417505 0 0.969917 0.243434 0 0.853713 0.520743 0 0.0430461 0.999073 0 0.218743 0.975783 0 0.934073 0.357081 0 0.491801 0.870708 0 0.870428 0.492296 0 0.926524 0.376235 0 0.363478 0.931603 0 0.79215 0.610326 0 0.987925 0.154935 0 0.510411 0.85993 0 0.892516 0.451015 0 0.4204 0.907339 0 0.874355 0.485287 0 0.475351 0.879796 0 0.936989 0.34936 0 0.82012 0.572192 0 
VECTORS VY float
6.12323e-17 1 0 6.12323e-17 1 0 6.12323e-17 1 0 6.12323e-17 1 0 6.12323e-17 1 0 6.12323e-17 1 0 6.12323e-17 1 0 6.12323e-17 1 0 6.12323e-17 1 0 6.12323e-17 1 0 6.12323e-17 1 0 6.12323e-17 1 0 6.12323e-17 1 0 6.12323e-17 1 0 6.12323e-17 1 0 6.12323e-17 1 0 6.12323e-17 1 0 6.12323e-17 1 0 6.12323e-17 1 0 6.12323e-17 1 0 6.12323e-17 1 0 6.12323e-17 1 0 6.12323e-17 1 0 6.12323e-17 1 0 -0.997066 0.0765422 0 -0.97715 0.212551 0 -0.945571 0.325417 0 -0.916419 0.40022 0 -0.892604 0.450841 0 -0.876048 0.482224 0 -0.866246 0.499618 0 -0.860718 0.509082 0 -0.858195 0.513323 0 -0.858195 0.513323 0 -0.860718 0.509082 0 -0.866246 0.499618 0 -0.876048 0.482224 0 -0.892604 0.450841 0 -0.916419 0.40022 0 -0.945571 0.325417 0 -0.97715 0.212551 0 -0.997066 0.0765422 0 -0.0765422 0.997066 0 -0.212551 0.97715 0 -0.325417 0.945571 0 -0.40022 0.916419 0 -0.450841 0.892604 0 -0.482224 0.876048 0 -0.499618 0.866246 0 -0.509082 0.860718 0 -0.513323 0.858195 0 -0.513323 0.858195 0 -0.509082 0.860718 0 -0.499618 0.866246 0 -0.482224 0.876048 0 -0.450841 0.892604 0 -0.40022 0.916419 0 -0.325417 0.945571 0 -0.212551 0.97715 0 -0.0765422 0.997066 0 6.12323e-17 1 0 6.12323e-17 1 0 6.12323e-17 1 0 -0.692977 0.72096 0 -0.71986 0.694119 0 -0.300355 0.953828 0 -0.972314 0.23368 0 -0.857909 0.513801 0 -0.516914 0.856037 0 -0.0262234 0.999656 0 -0.710762 0.703432 0 -0.225165 0.974321 0 -0.985402 0.170243 0 -0.476828 0.878997 0 -0.887388 0.461024 0 -0.999013 0.0444168 0 -0.856785 0.515674 0 -0.518461 0.855101 0 -0.433304 0.901248 0 -0.934965 0.354741 0 -0.0114295 0.999935 0 -0.0788309 0.996888 0 -0.402087 0.915602 0 -0.921738 0.387812 0 -0.75424 0.656599 0 -0.998371 0.0570576 0 -0.997098 0.0761314 0 -0.490083 0.871676 0 -0.871226 0.490881 0 -0.0878909 0.99613 0 -0.506124 0.862461 0 -0.864591 0.502477 0 -0.163339 0.98657 0 -0.988182 0.153285 0 -0.999994 0.00351634 0 -0.151238 0.988497 0 -0.999271 0.0381865 0 -0.583879 0.81184 0 -0.562555 0.82676 0 -0.854823 0.51892 0 -0.16925 0.985573 0 -0.937853 0.347032 0 -0.348392 0.937349 0 -0.0174342 0.999848 0 -0.510684 0.859768 0 -0.86076 0.509011 0 -0.356249 0.934391 0 -0.946611 0.322377 0 -0.998083 0.0618901 0 -0.810446 0.585814 0 -0.647246 0.762281 0 -0.475944 0.879476 0 -0.884935 0.465714 0 -0.999741 0.0227738 0 -0.240869 0.970558 0 -0.490811 0.871266 0 -0.881165 0.472809 0 -0.991951 0.126625 0 -0.978028 0.208473 0 -0.0936832 0.995602 0 -0.421791 0.906693 0 -0.923802 0.382872 0 -0.498522 0.866877 0 -0.869704 0.493573 0 -0.830204 0.55746 0 -0.159147 0.987255 0 -0.999866 0.0163999 0 -0.999915 0.0130561 0 -0.869578 0.493795 0 -0.496422 0.868081 0 -0.0435166 0.999053 0 -0.266999 0.963697 0 -0.968373 0.249508 0 -0.581602 0.813473 0 -0.966869 0.255274 0 -0.996409 0.0846737 0 -0.421279 0.906931 0 -0.90864 0.41758 0 -0.44172 0.897153 0 -0.912189 0.409769 0 -0.975898 0.218227 0 -0.171227 0.985232 0 -0.998592 0.0530515 0 -0.0378401 0.999284 0 -0.467371 0.884061 0 -0.416264 0.909244 0 -0.916299 0.400495 0 -0.337923 0.941174 0 -0.964008 0.265873 0 -0.530332 0.84779 0 -0.853293 0.521432 0 -0.262823 0.964844 0 -0.999658 0.0261589 0 -0.0702976 0.997526 0 -0.504231 0.863569 0 -0.865148 0.501517 0 -0.296554 0.955016 0 -0.02528 0.99968 0 -0.999998 0.00198091 0 -0.70556 0.70865 0 -0.835721 0.549155 0 -0.991316 0.131501 0 -0.993313 0.115455 0 -0.706432 0.707781 0 -0.0146654 0.999892 0 -0.349489 0.936941 0 -0.0970821 0.995276 0 -0.99598 0.0895742 0 -0.805724 0.592291 0 -0.0818372 0.996646 0 -0.983014 0.183531 0 -0.479352 0.877623 0 -0.955672 0.294433 0 -0.510305 0.859993 0 -0.86077 0.508995 0 -0.00161708 0.999999 0 -0.504377 0.863484 0 -0.867136 0.498071 0 -0.475929 0.879484 0 -0.880392 0.474246 0 -0.504399 0.86347 0 -0.999986 0.00521568 0 -0.0153357 0.999882 0 -0.0341155 0.999418 0 -0.548718 0.836007 0 -0.273968 0.961739 0 -0.556324 0.830966 0 -0.511958 0.859011 0 -0.861246 0.508188 0 -0.899428 0.437069 0 -0.466585 0.884477 0 -0.888159 0.459536 0 -0.99941 0.0343327 0 -0.0986114 0.995126 0 -0.230887 0.972981 0 -0.974867 0.222788 0 -0.168405 0.985718 0 -0.187327 0.982298 0 -0.986979 0.16085 0 -0.997711 0.0676198 0 -0.102929 0.994689 0 -0.990357 0.138538 0 -0.999864 0.0164617 0 -0.869003 0.494807 0 -0.135033 0.990841 0 -0.507865 0.861437 0 -0.862609 0.505871 0 -0.999972 0.00746686 0 -0.999996 0.00284914 0 -0.494474 0.869192 0 -0.870784 0.491667 0 -0.946115 0.323831 0 -0.5168 0.856106 0 -0.495216 0.86877 0 -0.874304 0.485378 0 -0.630376 0.77629 0 -0.86527 0.501306 0 -0.997748 0.067081 0 -0.99984 0.0178626 0 -0.887646 0.460526 0 -0.311494 0.950248 0 -0.834402 0.551156 0 -0.860693 0.509125 0 -0.933189 0.359385 0 -0.359047 0.933319 0 -0.461436 0.887173 0 -0.897276 0.441471 0 -0.291294 0.956633 0 -0.968373 0.249509 0 -0.999967 0.00816747 0 -0.382507 0.923952 0 -0.9436 0.331087 0 -0.0371619 0.999309 0 -0.0279054 0.999611 0 -0.744599 0.667512 0 -0.351712 0.936108 0 -0.942971 0.332874 0 -0.0124539 0.999922 0 -0.988879 0.148721 0 -0.999853 0.0171732 0 -0.222296 0.974979 0 -0.00681099 0.999977 0 -0.805888 0.592068 0 -0.624998 0.780627 0 -0.544349 0.838859 0 -0.507811 0.861469 0 -0.862149 0.506654 0 -0.0524042 0.998626 0 -0.515177 0.857084 0 -0.043686 0.999045 0 -0.417505 0.908675 0 -0.243434 0.969917 0 -0.520743 0.853713 0 -0.999073 0.0430461 0 -0.975783 0.218743 0 -0.357081 0.934073 0 -0.870708 0.491801 0 -0.492296 0.870428 0 -0.376235 0.926524 0 -0.931603 0.363478 0 -0.610326 0.79215 0 -0.154935 0.987925 0 -0.85993 0.510411 0 -0.451015 0.892516 0 -0.907339 0.4204 0 -0.485287 0.874355 0 -0.879796 0.475351 0 -0.34936 0.936989 0 -0.572192 0.82012 0 
VECTORS VXM float