# vtk DataFile Version 3.0
Generated by GMDS VTK Writer

ASCII
DATASET UNSTRUCTURED_GRID
POINTS 86 float
0 0 0
0 5 0
1 5 0
1 0 0
5 2 0
5 3 0
4 3 0
4 2 0
0 0.555556 0
0 1.11111 0
0 1.66667 0
0 2.22222 0
0 2.77778 0
0 3.33333 0
0 3.88889 0
0 4.44444 0
0.544464 4.96226 0
1.06352 4.7918 0
1.55455 4.55089 0
2.03001 4.28017 0
2.5 4 0
2.96999 3.71983 0
3.44545 3.44911 0
3.93648 3.2082 0
4.45554 3.03774 0
0.544464 0.037745 0
1.06352 0.208203 0
1.55455 0.449111 0
2.03001 0.719832 0
2.5 1 0
2.96999 1.28017 0
3.44545 1.55089 0
3.93648 1.7918 0
4.45554 1.96226 0
5 2.5 0
1.727 2.51207 0
2.73194 2.54615 0
1.07532 1.48673 0
1.07532 3.51327 0
2.21239 3.20999 0
2.23472 1.79702 0
0.833396 2.49434 0
3.60341 2.5 0
0.715323 0.875872 0
0.715323 4.12413 0
1.67373 1.39355 0
1.73038 3.54515 0
0.548026 3.0272 0
0.548026 1.97118 0
2.93477 3.1051 0
2.87835 1.93747 0
1.5764 1.95126 0
1.51877 3.03083 0
4.2494 2.50674 0
2.25268 2.58793 0
1.28315 0.953943 0
1.28315 4.04606 0
0.452897 3.6607 0
0.452897 1.3391 0
1.0455 2.90633 0
1.08567 2.06524 0
3.50558 2.94263 0
3.49618 2.09814 0
2.5624 3.44134 0
2.54705 1.46106 0
0.492397 0.471482 0
0.492397 4.52852 0
0.371091 2.49947 0
2.44121 2.21518 0
2.01992 2.21256 0
4.64204 2.35219 0
1.2639 2.47314 0
2.555 2.92778 0
1.91311 2.92732 0
3.91146 2.22525 0
3.91231 2.77787 0
1.03972 0.620421 0
1.03972 4.37958 0
2.12125 3.75428 0
2.14845 1.2409 0
1.72915 4.03923 0
1.70422 0.951093 0
4.68075 2.69952 0
3.1917 2.52158 0
0.31559 0.865559 0
0.31559 4.13444 0

CELLS 131 524
3 73 52 46 
3 39 73 46 
3 37 43 58 
3 38 57 44 
3 36 83 50 
3 83 62 50 
3 37 55 43 
3 38 44 56 
3 40 45 51 
3 37 45 55 
3 38 56 46 
3 10 11 48 
3 12 13 47 
3 37 51 45 
3 38 46 52 
3 37 58 48 
3 38 47 57 
3 12 47 67 
3 11 67 48 
3 35 71 52 
3 52 71 59 
3 40 50 64 
3 41 67 47 
3 41 48 67 
3 21 22 49 
3 30 50 31 
3 40 68 50 
3 40 51 69 
3 39 46 78 
3 40 79 45 
3 0 65 25 
3 1 16 66 
3 26 65 76 
3 17 77 66 
3 13 57 47 
3 10 48 58 
3 0 8 65 
3 1 66 15 
3 25 65 26 
3 16 17 66 
3 49 72 63 
3 38 59 47 
3 37 48 60 
3 35 51 71 
3 39 63 72 
3 46 56 80 
3 45 81 55 
3 41 47 59 
3 41 60 48 
3 21 49 63 
3 30 64 50 
3 38 52 59 
3 37 60 51 
3 33 74 53 
3 24 53 75 
3 51 60 71 
3 36 49 83 
3 36 50 68 
3 22 61 49 
3 31 50 62 
3 13 14 57 
3 9 10 58 
3 31 62 32 
3 22 23 61 
3 24 82 53 
3 32 74 33 
3 23 24 75 
3 35 69 51 
3 4 33 70 
3 36 72 49 
3 19 78 80 
3 28 81 79 
3 4 70 34 
3 33 53 70 
3 32 62 74 
3 23 75 61 
3 18 56 77 
3 27 76 55 
3 35 52 73 
3 28 79 29 
3 19 20 78 
3 42 62 83 
3 43 76 65 
3 44 66 77 
3 27 55 81 
3 18 80 56 
3 17 18 77 
3 26 76 27 
3 49 61 83 
3 53 74 75 
3 42 75 74 
3 53 82 70 
3 39 78 63 
3 40 64 79 
3 46 80 78 
3 45 79 81 
3 36 68 54 
3 36 54 72 
3 35 54 69 
3 35 73 54 
3 27 81 28 
3 18 19 80 
3 20 21 63 
3 29 64 30 
3 39 72 54 
3 39 54 73 
3 43 55 76 
3 44 77 56 
3 5 82 24 
3 44 57 85 
3 43 84 58 
3 14 85 57 
3 9 58 84 
3 11 12 67 
3 42 61 75 
3 42 74 62 
3 41 59 71 
3 8 9 84 
3 14 15 85 
3 5 34 82 
3 41 71 60 
3 40 69 68 
3 54 68 69 
3 42 83 61 
3 8 84 65 
3 15 66 85 
3 20 63 78 
3 29 79 64 
3 34 70 82 
3 43 65 84 
3 44 85 66 

CELL_TYPES 131
5 
5 
5 
5 
5 
5 
5 
5 
5 
5 
5 
5 
5 
5 
5 
5 
5 
5 
5 
5 
5 
5 
5 
5 
5 
5 
5 
5 
5 
5 
5 
5 
5 
5 
5 
5 
5 
5 
5 
5 
5 
5 
5 
5 
5 
5 
5 
5 
5 
5 
5 
5 
5 
5 
5 
5 
5 
5 
5 
5 
5 
5 
5 
5 
5 
5 
5 
5 
5 
5 
5 
5 
5 
5 
5 
5 
5 
5 
5 
5 
5 
5 
5 
5 
5 
5 
5 
5 
5 
5 
5 
5 
5 
5 
5 
5 
5 
5 
5 
5 
5 
5 
5 
5 
5 
5 
5 
5 
5 
5 
5 
5 
5 
5 
5 
5 
5 
5 
5 
5 
5 
5 
5 
5 
5 
5 
5 
5 
5 
5 
5 
POINT_DATA 86
SCALARS GMDS_ID int 1
LOOKUP_TABLE default
0 1 2 3 4 5 6 7 8 9 10 11 12 13 14 15 16 17 18 19 20 21 22 23 24 25 26 27 28 29 30 31 32 33 34 35 36 37 38 39 40 41 42 43 44 45 46 47 48 49 50 51 52 53 54 55 56 57 58 59 60 61 62 63 64 65 66 67 68 69 70 71 72 73 74 75 76 77 78 79 80 81 82 83 84 85 
SCALARS angle float 1
LOOKUP_TABLE default
0 0 0 0 0 0 0 0 0 0 0 0 0 0 0 0 5.51015 4.73635 4.33575 4.17285 4.13294 4.17285 4.33575 4.73635 5.51015 0.773033 1.54683 1.94744 2.11033 2.15024 2.11033 1.94744 1.54683 0.773033 0 5.80035 3.52098 1.17258 5.05595 4.3085 2.00435 6.26284 3.87941 1.12843 5.12944 1.81513 4.43323 6.10089 0.156334 4.28379 2.04819 1.34456 4.96733 0.181177 3.86039 1.70903 4.55655 5.8239 0.43066 5.82125 0.450031 4.6171 1.68769 4.21793 2.0842 0.598422 5.66835 6.2778 2.27741 1.88862 0.0219719 6.25817 4.1836 4.53815 1.45837 4.83288 1.57622 4.69912 4.23843 2.0389 4.30984 1.95957 0.0157263 3.53035 0.351995 5.91699 
VECTORS cross_X float
1 0 0 1 0 0 1 0 0 1 0 0 1 0 0 1 0 0 1 0 0 1 0 0 1 0 0 1 0 0 1 0 0 1 0 0 1 0 0 1 0 0 1 0 0 1 0 0 0.192058 0.981384 0 0.377142 0.926156 0 0.467853 0.883807 0 0.503447 0.864026 0 0.512043 0.85896 0 0.503447 0.864026 0 0.467853 0.883807 0 0.377142 0.926156 0 0.192058 0.981384 0 0.981384 0.192058 0 0.926156 0.377142 0 0.883807 0.467853 0 0.864026 0.503447 0 0.85896 0.512043 0 0.864026 0.503447 0 0.883807 0.467853 0 0.926156 0.377142 0 0.981384 0.192058 0 1 0 0 0.120416 0.992724 0 0.636963 0.770895 0 0.95734 0.288965 0 0.302018 0.953302 0 0.473863 0.880599 0 0.877061 0.480379 0 0.00508686 0.999987 0 0.565421 0.824803 0 0.960471 0.278381 0 0.284453 0.95869 0 0.898796 0.438367 0 0.446178 0.894944 0 0.0455574 0.998962 0 0.999236 0.0390737 0 0.479294 0.877655 0 0.871743 0.489963 0 0.944035 0.329846 0 0.323063 0.946377 0 0.998974 0.0452788 0 0.569337 0.822105 0 0.910106 0.414376 0 0.418378 0.908273 0 0.114569 0.993415 0 0.99421 0.107457 0 0.115227 0.993339 0 0.993678 0.11227 0 0.404582 0.914502 0 0.912303 0.409515 0 0.493678 0.869645 0 0.867296 0.497792 0 0.98883 0.149048 0 0.153103 0.98821 0 0.00134547 0.999999 0 0.84225 0.539087 0 0.89059 0.454807 0 0.999985 0.00549296 0 0.00625398 0.99998 0 0.501124 0.865376 0 0.422552 0.906339 0 0.934269 0.356568 0 0.354685 0.934986 0 0.92336 0.383935 0 0.385747 0.922605 0 0.489215 0.872163 0 0.872879 0.487937 0 0.473566 0.880758 0 0.882383 0.470532 0 0.999992 0.00393156 0 0.635155 0.772384 0 0.996131 0.0878852 0 0.091422 0.995812 0 
VECTORS VY float
6.12323e-17 1 0 6.12323e-17 1 0 6.12323e-17 1 0 6.12323e-17 1 0 6.12323e-17 1 0 6.12323e-17 1 0 6.12323e-17 1 0 6.12323e-17 1 0 6.12323e-17 1 0 6.12323e-17 1 0 6.12323e-17 1 0 6.12323e-17 1 0 6.12323e-17 1 0 6.12323e-17 1 0 6.12323e-17 1 0 6.12323e-17 1 0 -0.981384 0.192058 0 -0.926156 0.377142 0 -0.883807 0.467853 0 -0.864026 0.503447 0 -0.85896 0.512043 0 -0.864026 0.503447 0 -0.883807 0.467853 0 -0.926156 0.377142 0 -0.981384 0.192058 0 -0.192058 0.981384 0 -0.377142 0.926156 0 -0.467853 0.883807 0 -0.503447 0.864026 0 -0.512043 0.85896 0 -0.503447 0.864026 0 -0.467853 0.883807 0 -0.377142 0.926156 0 -0.192058 0.981384 0 6.12323e-17 1 0 -0.992724 0.120416 0 -0.770895 0.636963 0 -0.288965 0.95734 0 -0.953302 0.302018 0 -0.880599 0.473863 0 -0.480379 0.877061 0 -0.999987 0.00508686 0 -0.824803 0.565421 0 -0.278381 0.960471 0 -0.95869 0.284453 0 -0.438367 0.898796 0 -0.894944 0.446178 0 -0.998962 0.0455574 0 -0.0390737 0.999236 0 -0.877655 0.479294 0 -0.489963 0.871743 0 -0.329846 0.944035 0 -0.946377 0.323063 0 -0.0452788 0.998974 0 -0.822105 0.569337 0 -0.414376 0.910106 0 -0.908273 0.418378 0 -0.993415 0.114569 0 -0.107457 0.99421 0 -0.993339 0.115227 0 -0.11227 0.993678 0 -0.914502 0.404582 0 -0.409515 0.912303 0 -0.869645 0.493678 0 -0.497792 0.867296 0 -0.149048 0.98883 0 -0.98821 0.153103 0 -0.999999 0.00134547 0 -0.539087 0.84225 0 -0.454807 0.89059 0 -0.00549296 0.999985 0 -0.99998 0.00625398 0 -0.865376 0.501124 0 -0.906339 0.422552 0 -0.356568 0.934269 0 -0.934986 0.354685 0 -0.383935 0.92336 0 -0.922605 0.385747 0 -0.872163 0.489215 0 -0.487937 0.872879 0 -0.880758 0.473566 0 -0.470532 0.882383 0 -0.00393156 0.999992 0 -0.772384 0.635155 0 -0.0878852 0.996131 0 -0.995812 0.091422 0 
VECTORS VXM float
-1 1.22465e-16 0 -1 1.22465e-16 0 -1 1.22465e-16 0 -1 1.22465e-16 0 -1 1.22465e-16 0 -1 1.22465e-16 0 -1 1.22465e-16 0 -1 1.22465e-16 0 -1 1.22465e-16 0 -1 1.22465e-16 0 -1 1.22465e-16 0 -1 1.22465e-16 0 -1 1.22465e-16 0 -1 1.22465e-16 0 -1 1.22465e-16 0 -1 1.22465e-16 0 -0.192058 -0.981384 0 -0.377142 -0.926156 0 -0.467853 -0.883807 0 -0.503447 -0.864026 0 -0.512043 -0.85896 0 -0.503447 -0.864026 0 -0.467853 -0.883807 0 -0.377142 -0.926156 0 -0.192058 -0.981384 0 -0.981384 -0.192058 0 -0.926156 -0.377142 0 -0.883807 -0.467853 0 -0.864026 -0.503447 0 -0.85896 -0.512043 0 -0.864026 -0.503447 0 -0.883807 -0.467853 0 -0.926156 -0.377142 0 -0.981384 -0.192058 0 -1 1.22465e-16 0 -0.120416 -0.992724 0 -0.636963 -0.770895 0 -0.95734 -0.288965 0 -0.302018 -0.953302 0 -0.473863 -0.880599 0 -0.877061 -0.480379 0 -0.00508686 -0.999987 0 -0.565421 -0.824803 0 -0.960471 -0.278381 0 -0.284453 -0.95869 0 -0.898796 -0.438367 0 -0.446178 -0.894944 0 -0.0455574 -0.998962 0 -0.999236 -0.0390737 0 -0.479294 -0.877655 0 -0.871743 -0.489963 0 -0.944035 -0.329846 0 -0.323063 -0.946377 0 -0.998974 -0.0452788 0 -0.569337 -0.822105 0 -0.910106 -0.414376 0 -0.418378 -0.908273 0 -0.114569 -0.993415 0 -0.99421 -0.107457 0 -0.115227 -0.993339 0 -0.993678 -0.11227 0 -0.404582 -0.914502 0 -0.912303 -0.409515 0 -0.493678 -0.869645 0 -0.867296 -0.497792 0 -0.98883 -0.149048 0 -0.153103 -0.98821 0 -0.00134547 -0.999999 0 -0.84225 -0.539087 0 -0.89059 -0.454807 0 -0.999985 -0.00549296 0 -0.00625398 -0.99998 0 -0.501124 -0.865376 0 -0.422552 -0.906339 0 -0.934269 -0.356568 0 -0.354685 -0.934986 0 -0.92336 -0.383935 0 -0.385747 -0.922605 0 -0.489215 -0.872163 0 -0.872879 -0.487937 0 -0.473566 -0.880758 0 -0.882383 -0.470532 0 -0.999992 -0.00393156 0 -0.635155 -0.772384 0 -0.996131 -0.0878852 0 -0.091422 -0.995812 0 
VECTORS VYM float
-1.83697e-16 -1 0 -1.83697e-16 -1 0 -1.83697e-16 -1 0 -1.83697e-16 -1 0 -1.83697e-16 -1 0 -1.83697e-16 -1 0 -1.83697e-16 -1 0 -1.83697e-16 -1 0 -1.83697e-16 -1 0 -1.83697e-16 -1 0 -1.83697e-16 -1 0 -1.83697e-16 -1 0 -1.83697e-16 -1 0 -1.83697e-16 -1 0 -1.83697e-16 -1 0 -1.83697e-16 -1 0 0.981384 -0.192058 0 0.926156 -0.377142 0 0.883807 -0.467853 0 0.864026 -0.503447 0 0.85896 -0.512043 0 0.864026 -0.503447 0 0.883807 -0.467853 0 0.926156 -0.377142 0 0.981384 -0.192058 0 0.192058 -0.981384 0 0.377142 -0.926156 0 0.467853 -0.883807 0 0.503447 -0.864026 0 0.512043 -0.85896 0 0.503447 -0.864026 0 0.467853 -0.883807 0 0.377142 -0.926156 0 0.192058 -0.981384 0 -1.83697e-16 -1 0 0.992724 -0.120416 0 0.770895 -0.636963 0 0.288965 -0.95734 0 0.953302 -0.302018 0 0.880599 -0.473863 0 0.480379 -0.877061 0 0.999987 -0.00508686 0 0.824803 -0.565421 0 0.278381 -0.960471 0 0.95869 -0.284453 0 0.438367 -0.898796 0 0.894944 -0.446178 0 0.998962 -0.0455574 0 0.0390737 -0.999236 0 0.877655 -0.479294 0 0.489963 -0.871743 0 0.329846 -0.944035 0 0.946377 -0.323063 0 0.0452788 -0.998974 0 0.822105 -0.569337 0 0.414376 -0.910106 0 0.908273 -0.418378 0 0.993415 -0.114569 0 0.107457 -0.99421 0 0.993339 -0.115227 0 0.11227 -0.993678 0 0.914502 -0.404582 0 0.409515 -0.912303 0 0.869645 -0.493678 0 0.497792 -0.867296 0 0.149048 -0.98883 0 0.98821 -0.153103 0 0.999999 -0.00134547 0 0.539087 -0.84225 0 0.454807 -0.89059 0 0.00549296 -0.999985 0 0.99998 -0.00625398 0 0.865376 -0.501124 0 0.906339 -0.422552 0 0.356568 -0.934269 0 0.934986 -0.354685 0 0.383935 -0.92336 0 0.922605 -0.385747 0 0.872163 -0.489215 0 0.487937 -0.872879 0 0.880758 -0.473566 0 0.470532 -0.882383 0 0.00393156 -0.999992 0 0.772384 -0.635155 0 0.0878852 -0.996131 0 0.995812 -0.091422 0 


CELL_DATA 131
SCALARS GMDS_ID int 1
LOOKUP_TABLE default
0 1 2 3 4 5 6 7 8 9 10 11 12 13 14 15 16 17 18 19 20 21 22 23 24 25 26 27 28 29 30 31 32 33 34 35 36 37 38 39 40 41 42 43 44 45 46 47 48 49 50 51 52 53 54 55 56 57 58 59 60 61 62 63 64 65 66 67 68 69 70 71 72 73 74 75 76 77 78 79 80 81 82 83 84 85 86 87 88 89 90 91 92 93 94 95 96 97 98 99 100 101 102 103 104 105 106 107 108 109 110 111 112 113 114 115 116 117 118 119 120 121 122 123 124 125 126 127 128 129 130 

SCALARS BND_SURFACE_COLOR int 1
LOOKUP_TABLE default
1 1 1 1 1 1 1 1 1 1 1 1 1 1 1 1 1 1 1 1 1 1 1 1 1 1 1 1 1 1 1 1 1 1 1 1 1 1 1 1 1 1 1 1 1 1 1 1 1 1 1 1 1 1 1 1 1 1 1 1 1 1 1 1 1 1 1 1 1 1 1 1 1 1 1 1 1 1 1 1 1 1 1 1 1 1 1 1 1 1 1 1 1 1 1 1 1 1 1 1 1 1 1 1 1 1 1 1 1 1 1 1 1 1 1 1 1 1 1 1 1 1 1 1 1 1 1 1 1 1 1 

SCALARS angleDeviation float 1
LOOKUP_TABLE default
0.356068 0.1531 0.494614 0.511968 0.988106 1.22844 0.387063 0.381929 0.439857 0.428364 0.415148 0.104223 0.121528 0.428364 0.415148 0.677497 0.69663 0.121528 0.107811 0.86056 0.86056 0.0532394 0.11794 0.117788 0.108596 0.108596 0.182042 0.439857 0.129866 0.149181 0.515356 0.515356 0.651864 0.646159 0.30619 0.287107 0.398948 0.409887 0.632274 0.621334 0.0667924 0.69663 0.677497 1.21826 0.0832663 0.16447 0.167031 0.294392 0.313585 0.0739557 0.0414294 0.569281 0.596353 0.851461 1.08766 0.913051 0.508539 0.98186 0.222207 0.240331 0.30619 0.287107 0.26707 0.26707 0.63614 0.515866 0.515866 1.58097 0.515356 0.508539 0.0913275 0.100506 0.014648 0.500708 0.152882 0.143855 0.242246 0.247479 0.841468 0.0742318 0.0703245 1.46115 0.651864 0.646159 0.167031 0.16447 0.26707 0.26707 0.7245 1.93912 2.0944 0.110301 0.0603788 0.0532394 0.129866 0.149181 1.05532 0.441747 2.0944 1.29331 0.108596 0.108596 0.0566592 0.0440267 0.298738 0.451838 0.387063 0.381929 0.52584 0.525028 0.517626 0.30619 0.287107 0.00358791 0.635644 1.61403 0.294392 0.234663 0.244133 0.0104842 0.316698 0.259192 1.31451 0.7245 0.398948 0.409887 0.0703245 0.0742318 0.014648 0.517626 0.525028 

SCALARS maxAngleDeviation float 1
LOOKUP_TABLE default
0.534103 0.22965 0.741921 0.767952 1.48216 1.84266 0.580594 0.572894 0.659786 0.642545 0.622722 0.156334 0.182293 0.642545 0.622722 1.01625 1.04494 0.182293 0.161716 1.29084 1.29084 0.0798591 0.176911 0.176682 0.162895 0.162895 0.273063 0.659786 0.194799 0.223771 0.773033 0.773033 0.977796 0.969238 0.459285 0.43066 0.598422 0.614831 0.94841 0.932001 0.100189 1.04494 1.01625 1.8274 0.124899 0.246706 0.250546 0.441588 0.470378 0.110934 0.0621442 0.853921 0.894529 1.27719 1.63148 1.36958 0.762808 1.47279 0.33331 0.360497 0.459285 0.43066 0.400605 0.400605 0.95421 0.773799 0.773799 2.37146 0.773033 0.762808 0.136991 0.150758 0.0219719 0.751061 0.229323 0.215782 0.363369 0.371219 1.2622 0.111348 0.105487 2.19172 0.977796 0.969238 0.250546 0.246706 0.400605 0.400605 1.08675 2.90868 2.90868 0.165451 0.0905682 0.0798591 0.194799 0.223771 1.58298 0.66262 2.37146 1.93996 0.162895 0.162895 0.0849889 0.0660401 0.448106 0.677757 0.580594 0.572894 0.78876 0.787543 0.776439 0.459285 0.43066 0.00538187 0.953466 2.42104 0.441588 0.351995 0.366199 0.0157263 0.475047 0.388789 1.97177 1.08675 0.598422 0.614831 0.105487 0.111348 0.0219719 0.776439 0.787543 

