# vtk DataFile Version 3.0
Generated by GMDS VTK Writer

ASCII
DATASET UNSTRUCTURED_GRID
POINTS 49 float
0 0 0
0 5 0
1 5 0
1 0 0
5 2 0
5 3 0
4 3 0
4 2 0
0 0.714286 0
0 1.42857 0
0 2.14286 0
0 2.85714 0
0 3.57143 0
0 4.28571 0
0.770847 4.90148 0
1.48571 4.5879 0
2.16458 4.2006 0
2.83542 3.7994 0
3.51429 3.4121 0
4.22915 3.09852 0
0.770847 0.0985229 0
1.48571 0.412096 0
2.16458 0.799402 0
2.83542 1.2006 0
3.51429 1.5879 0
4.22915 1.90148 0
5 2.5 0
1.69296 2.5 0
1.20157 3.50762 0
1.20157 1.49238 0
2.83201 2.5 0
0.600175 2.5 0
1.95545 3.34022 0
1.95545 1.70885 0
3.86626 2.5 0
0.79785 4.00401 0
0.79785 0.995992 0
4.50499 2.5 0
0.641746 3.22471 0
0.641746 1.77529 0
2.70067 1.8919 0
2.71753 3.12882 0
1.56257 3.95142 0
1.56257 1.05114 0
1.25088 2.90805 0
1.25088 2.09195 0
2.30901 2.51163 0
3.35437 2.18077 0
3.36935 2.83155 0

CELLS 65 260
3 33 46 40 
3 5 26 37 
3 4 37 26 
3 27 46 33 
3 12 35 38 
3 9 39 36 
3 8 20 0 
3 1 14 13 
3 10 11 31 
3 8 36 20 
3 13 14 35 
3 8 9 36 
3 12 13 35 
3 16 17 32 
3 22 33 23 
3 48 19 34 
3 47 34 25 
3 24 47 25 
3 18 19 48 
3 5 37 19 
3 4 25 37 
3 28 38 35 
3 29 36 39 
3 10 31 39 
3 11 38 31 
3 28 32 44 
3 29 45 33 
3 27 44 32 
3 27 33 45 
3 23 33 40 
3 17 41 32 
3 30 40 46 
3 20 36 21 
3 14 15 35 
3 21 36 43 
3 15 42 35 
3 28 42 32 
3 29 33 43 
3 23 40 24 
3 17 18 41 
3 16 32 42 
3 22 43 33 
3 29 43 36 
3 28 35 42 
3 27 32 46 
3 24 40 47 
3 18 48 41 
3 19 37 34 
3 25 34 37 
3 31 45 39 
3 31 38 44 
3 31 44 45 
3 27 45 44 
3 9 10 39 
3 11 12 38 
3 29 39 45 
3 28 44 38 
3 30 48 47 
3 34 47 48 
3 15 16 42 
3 21 43 22 
3 32 41 46 
3 30 47 40 
3 30 41 48 
3 30 46 41 

CELL_TYPES 65
5 
5 
5 
5 
5 
5 
5 
5 
5 
5 
5 
5 
5 
5 
5 
5 
5 
5 
5 
5 
5 
5 
5 
5 
5 
5 
5 
5 
5 
5 
5 
5 
5 
5 
5 
5 
5 
5 
5 
5 
5 
5 
5 
5 
5 
5 
5 
5 
5 
5 
5 
5 
5 
5 
5 
5 
5 
5 
5 
5 
5 
5 
5 
5 
5 
POINT_DATA 49
SCALARS GMDS_ID int 1
LOOKUP_TABLE default
0 1 2 3 4 5 6 7 8 9 10 11 12 13 14 15 16 17 18 19 20 21 22 23 24 25 26 27 28 29 30 31 32 33 34 35 36 37 38 39 40 41 42 43 44 45 46 47 48 
SCALARS angle float 1
LOOKUP_TABLE default
0 0 0 0 0 0 0 0 0 0 0 0 0 0 5.20219 4.41953 4.1683 4.1683 4.41953 5.20219 1.08099 1.86366 2.11488 2.11488 1.86366 1.08099 0 0.0625899 5.16615 1.11642 2.59668 0.00288245 4.62423 1.59917 1.42045 4.97091 1.30924 1.13336 6.11452 0.17238 1.8469 4.34714 4.4351 1.84196 5.91423 0.391067 1.25075 1.89353 4.23948 
VECTORS cross_X float
1 0 0 1 0 0 1 0 0 1 0 0 1 0 0 1 0 0 1 0 0 1 0 0 1 0 0 1 0 0 1 0 0 1 0 0 1 0 0 1 0 0 0.266971 0.963705 0 0.44924 0.893411 0 0.504429 0.863453 0 0.504429 0.863453 0 0.44924 0.893411 0 0.266971 0.963705 0 0.963705 0.266971 0 0.893411 0.44924 0 0.863453 0.504429 0 0.863453 0.504429 0 0.893411 0.44924 0 0.963705 0.266971 0 1 0 0 0.999878 0.0156468 0 0.275644 0.96126 0 0.961302 0.275496 0 0.796586 0.604525 0 1 0.000720613 0 0.402952 0.915221 0 0.921141 0.389228 0 0.937607 0.347696 0 0.322215 0.946667 0 0.946911 0.321497 0 0.960127 0.279565 0 0.0421528 0.999111 0 0.999072 0.0430817 0 0.895285 0.445493 0 0.465334 0.885135 0 0.445759 0.895153 0 0.895835 0.444387 0 0.0921069 0.995749 0 0.995225 0.0976111 0 0.95151 0.307618 0 0.890031 0.455899 0 0.488985 0.872292 0 
VECTORS VY float
6.12323e-17 1 0 6.12323e-17 1 0 6.12323e-17 1 0 6.12323e-17 1 0 6.12323e-17 1 0 6.12323e-17 1 0 6.12323e-17 1 0 6.12323e-17 1 0 6.12323e-17 1 0 6.12323e-17 1 0 6.12323e-17 1 0 6.12323e-17 1 0 6.12323e-17 1 0 6.12323e-17 1 0 -0.963705 0.266971 0 -0.893411 0.44924 0 -0.863453 0.504429 0 -0.863453 0.504429 0 -0.893411 0.44924 0 -0.963705 0.266971 0 -0.266971 0.963705 0 -0.44924 0.893411 0 -0.504429 0.863453 0 -0.504429 0.863453 0 -0.44924 0.893411 0 -0.266971 0.963705 0 6.12323e-17 1 0 -0.0156468 0.999878 0 -0.96126 0.275644 0 -0.275496 0.961302 0 -0.604525 0.796586 0 -0.000720613 1 0 -0.915221 0.402952 0 -0.389228 0.921141 0 -0.347696 0.937607 0 -0.946667 0.322215 0 -0.321497 0.946911 0 -0.279565 0.960127 0 -0.999111 0.0421528 0 -0.0430817 0.999072 0 -0.445493 0.895285 0 -0.885135 0.465334 0 -0.895153 0.445759 0 -0.444387 0.895835 0 -0.995749 0.0921069 0 -0.0976111 0.995225 0 -0.307618 0.95151 0 -0.455899 0.890031 0 -0.872292 0.488985 0 
VECTORS VXM float
-1 1.22465e-16 0 -1 1.22465e-16 0 -1 1.22465e-16 0 -1 1.22465e-16 0 -1 1.22465e-16 0 -1 1.22465e-16 0 -1 1.22465e-16 0 -1 1.22465e-16 0 -1 1.22465e-16 0 -1 1.22465e-16 0 -1 1.22465e-16 0 -1 1.22465e-16 0 -1 1.22465e-16 0 -1 1.22465e-16 0 -0.266971 -0.963705 0 -0.44924 -0.893411 0 -0.504429 -0.863453 0 -0.504429 -0.863453 0 -0.44924 -0.893411 0 -0.266971 -0.963705 0 -0.963705 -0.266971 0 -0.893411 -0.44924 0 -0.863453 -0.504429 0 -0.863453 -0.504429 0 -0.893411 -0.44924 0 -0.963705 -0.266971 0 -1 1.22465e-16 0 -0.999878 -0.0156468 0 -0.275644 -0.96126 0 -0.961302 -0.275496 0 -0.796586 -0.604525 0 -1 -0.000720613 0 -0.402952 -0.915221 0 -0.921141 -0.389228 0 -0.937607 -0.347696 0 -0.322215 -0.946667 0 -0.946911 -0.321497 0 -0.960127 -0.279565 0 -0.0421528 -0.999111 0 -0.999072 -0.0430817 0 -0.895285 -0.445493 0 -0.465334 -0.885135 0 -0.445759 -0.895153 0 -0.895835 -0.444387 0 -0.0921069 -0.995749 0 -0.995225 -0.0976111 0 -0.95151 -0.307618 0 -0.890031 -0.455899 0 -0.488985 -0.872292 0 
VECTORS VYM float
-1.83697e-16 -1 0 -1.83697e-16 -1 0 -1.83697e-16 -1 0 -1.83697e-16 -1 0 -1.83697e-16 -1 0 -1.83697e-16 -1 0 -1.83697e-16 -1 0 -1.83697e-16 -1 0 -1.83697e-16 -1 0 -1.83697e-16 -1 0 -1.83697e-16 -1 0 -1.83697e-16 -1 0 -1.83697e-16 -1 0 -1.83697e-16 -1 0 0.963705 -0.266971 0 0.893411 -0.44924 0 0.863453 -0.504429 0 0.863453 -0.504429 0 0.893411 -0.44924 0 0.963705 -0.266971 0 0.266971 -0.963705 0 0.44924 -0.893411 0 0.504429 -0.863453 0 0.504429 -0.863453 0 0.44924 -0.893411 0 0.266971 -0.963705 0 -1.83697e-16 -1 0 0.0156468 -0.999878 0 0.96126 -0.275644 0 0.275496 -0.961302 0 0.604525 -0.796586 0 0.000720613 -1 0 0.915221 -0.402952 0 0.389228 -0.921141 0 0.347696 -0.937607 0 0.946667 -0.322215 0 0.321497 -0.946911 0 0.279565 -0.960127 0 0.999111 -0.0421528 0 0.0430817 -0.999072 0 0.445493 -0.895285 0 0.885135 -0.465334 0 0.895153 -0.445759 0 0.444387 -0.895835 0 0.995749 -0.0921069 0 0.0976111 -0.995225 0 0.307618 -0.95151 0 0.455899 -0.890031 0 0.872292 -0.488985 0 


CELL_DATA 65
SCALARS GMDS_ID int 1
LOOKUP_TABLE default
0 1 2 3 4 5 6 7 8 9 10 11 12 13 14 15 16 17 18 19 20 21 22 23 24 25 26 27 28 29 30 31 32 33 34 35 36 37 38 39 40 41 42 43 44 45 46 47 48 49 50 51 52 53 54 55 56 57 58 59 60 61 62 63 64 

SCALARS BND_SURFACE_COLOR int 1
LOOKUP_TABLE default
1 1 1 1 1 1 1 1 1 1 1 1 1 1 1 1 1 1 1 1 1 1 1 1 1 1 1 1 1 1 1 1 1 1 1 1 1 1 1 1 1 1 1 1 1 1 1 1 1 1 1 1 1 1 1 1 1 1 1 1 1 1 1 1 1 

SCALARS angleDeviation float 1
LOOKUP_TABLE default
0.397431 0.755576 0.755576 1.02439 0.874849 0.872826 0.720663 0.720663 0.00192163 0.872826 0.874849 0.872826 0.874849 0.303947 0.343804 2.0944 0.54169 0.54169 0.641807 1.47624 0.755576 0.762408 0.757906 0.11492 0.114362 0.860006 0.805405 1.1477 1.02439 0.343804 0.303947 0.897284 0.521777 0.521777 0.369614 0.367591 0.487366 0.48369 0.178653 0.167481 0.303947 0.343804 0.48369 0.487366 1.93981 0.0310858 0.12003 1.66763 0.226304 0.25879 0.247889 0.506678 0.506678 0.11492 0.112441 0.629362 0.632251 1.56397 1.87935 0.177862 0.181949 2.0944 0.499853 1.16697 2.06425 

SCALARS maxAngleDeviation float 1
LOOKUP_TABLE default
0.596147 1.13336 1.13336 1.53658 1.31227 1.30924 1.08099 1.08099 0.00288245 1.30924 1.31227 1.30924 1.31227 0.455921 0.515706 2.81903 0.812535 0.812535 0.96271 2.21436 1.13336 1.14361 1.13686 0.17238 0.171544 1.29001 1.20811 1.72155 1.53658 0.515706 0.455921 1.34593 0.782665 0.782665 0.554421 0.551387 0.731049 0.725535 0.26798 0.251221 0.455921 0.515706 0.725535 0.731049 2.90971 0.0466287 0.180045 2.50145 0.339456 0.388185 0.371833 0.760018 0.760018 0.17238 0.168661 0.944043 0.948377 2.34595 2.81903 0.266794 0.272923 3.09638 0.749779 1.75046 3.09638 

