# vtk DataFile Version 3.0
Generated by GMDS VTK Writer

ASCII
DATASET UNSTRUCTURED_GRID
POINTS 789 float
0 0 0
10 0 0
10 10 0
0 10 0
5 5 0
5 6 0
5 4 0
10 8 0
8 10 0
8 0 0
8 2 0
10 2 0
2 0 0
0 2 0
0 8 0
2 8 0
2 10 0
0.0384294 8.39018 0
0.152241 8.76537 0
0.337061 9.11114 0
0.585786 9.41421 0
0.88886 9.66294 0
1.23463 9.84776 0
1.60982 9.96157 0
8.03843 9.60982 0
8.15224 9.23463 0
8.33706 8.88886 0
8.58579 8.58579 0
8.88886 8.33706 0
9.23463 8.15224 0
9.60982 8.03843 0
9.96157 1.60982 0
9.84776 1.23463 0
9.66294 0.88886 0
9.41421 0.585786 0
9.11114 0.337061 0
8.76537 0.152241 0
8.39018 0.0384294 0
1.96157 0.390181 0
1.84776 0.765367 0
1.66294 1.11114 0
1.41421 1.41421 0
1.11114 1.66294 0
0.765367 1.84776 0
0.390181 1.96157 0
4.61732 5.92388 0
4.29289 5.70711 0
4.07612 5.38268 0
4 5 0
4.07612 4.61732 0
4.29289 4.29289 0
4.61732 4.07612 0
5.38268 4.07612 0
5.70711 4.29289 0
5.92388 4.61732 0
6 5 0
5.92388 5.38268 0
5.70711 5.70711 0
5.38268 5.92388 0
2.4 10 0
2.8 10 0
3.2 10 0
3.6 10 0
4 10 0
4.4 10 0
4.8 10 0
5.2 10 0
5.6 10 0
6 10 0
6.4 10 0
6.8 10 0
7.2 10 0
7.6 10 0
10 7.6 0
10 7.2 0
10 6.8 0
10 6.4 0
10 6 0
10 5.6 0
10 5.2 0
10 4.8 0
10 4.4 0
10 4 0
10 3.6 0
10 3.2 0
10 2.8 0
10 2.4 0
7.6 0 0
7.2 0 0
6.8 0 0
6.4 0 0
6 0 0
5.6 0 0
5.2 0 0
4.8 0 0
4.4 0 0
4 0 0
3.6 0 0
3.2 0 0
2.8 0 0
2.4 0 0
0 2.4 0
0 2.8 0
0 3.2 0
0 3.6 0
0 4 0
0 4.4 0
0 4.8 0
0 5.2 0
0 5.6 0
0 6 0
0 6.4 0
0 6.8 0
0 7.2 0
0 7.6 0
7.44707 2.49436 0
2.55293 7.50564 0
6.41002 7.79828 0
3.58998 2.20172 0
2.12675 3.7533 0
7.87325 6.2467 0
5.54533 2.08949 0
4.45467 7.91051 0
8.02899 4.31296 0
1.97101 5.68704 0
1.49538 8.40868 0
8.50462 1.59132 0
6.70229 1.37687 0
3.29771 8.62313 0
6.9059 3.71245 0
3.0941 6.28755 0
2.26046 2.4345 0
7.73954 7.5655 0
8.64995 3.12533 0
1.35005 6.87467 0
4.50421 1.2917 0
5.49579 8.7083 0
3.35211 3.46703 0
6.64789 6.53297 0
1.22146 4.60986 0
8.77854 5.39014 0
2.77888 4.86603 0
7.22112 5.13397 0
5.42646 7.14395 0
4.57354 2.85605 0
1.19086 2.99224 0
8.80914 7.00776 0
7.04608 8.83345 0
2.95392 1.16655 0
5.92902 3.12245 0
4.07098 6.87755 0
5.70343 1.0593 0
4.29657 8.9407 0
7.67541 1.02047 0
2.32459 8.97953 0
6.52798 2.32971 0
3.47202 7.67029 0
8.98948 4.06996 0
1.01052 5.93004 0
7.81219 3.41146 0
2.18781 6.58854 0
8.99098 2.31495 0
1.00902 7.68505 0
0.86584 3.81566 0
9.13416 6.18434 0
3.7662 0.854237 0
6.2338 9.14576 0
3.27664 5.45172 0
6.72336 4.54828 0
7.67916 8.37149 0
2.32084 1.62851 0
3.36323 4.27088 0
6.63677 5.72912 0
4.71873 2.01692 0
5.28127 7.98308 0
8.16745 2.36604 0
1.83255 7.63396 0
2.02932 4.47562 0
7.97068 5.52438 0
2.99491 2.72786 0
7.00509 7.27214 0
4.1363 3.45413 0
5.8637 6.54587 0
7.82213 1.77335 0
2.17787 8.22665 0
8.42289 0.787643 0
1.57711 9.21236 0
5.21303 3.26912 0
4.78697 6.73088 0
1.47049 2.2514 0
8.52951 7.7486 0
9.28313 4.81678 0
0.716866 5.18322 0
5.05123 0.725083 0
4.94877 9.27492 0
6.90181 2.97055 0
3.09819 7.02945 0
0.766359 8.36539 0
9.23364 1.63461 0
3.60865 9.32651 0
6.39135 0.673494 0
1.95742 3.01817 0
8.04258 6.98183 0
3.81343 2.84746 0
6.18657 7.15254 0
6.18322 3.80193 0
3.81678 6.19807 0
7.13366 7.93457 0
2.86634 2.06543 0
7.38067 4.19569 0
2.61933 5.80431 0
9.26611 3.45488 0
0.733889 6.54512 0
3.86484 1.54599 0
6.13516 8.45401 0
5.24127 1.50477 0
4.75873 8.49523 0
6.08813 1.64924 0
3.91187 8.35076 0
2.67536 3.33754 0
7.32464 6.66246 0
7.11306 0.657613 0
2.88694 9.34239 0
2.69985 4.12043 0
7.30015 5.87957 0
7.10275 1.94721 0
2.89725 8.05279 0
9.35793 7.4444 0
0.642071 2.5556 0
1.50566 4.00275 0
8.49434 5.99725 0
8.41853 3.76018 0
1.58147 6.23982 0
7.41278 9.43449 0
2.58722 0.565507 0
5.21511 2.63177 0
4.78489 7.36823 0
1.41277 5.24872 0
8.58723 4.75128 0
4.37241 0.652085 0
5.62759 9.34792 0
4.20402 2.35789 0
5.79598 7.64211 0
0.600711 4.48911 0
9.39929 5.51089 0
2.25825 5.13147 0
7.74175 4.86853 0
3.38825 4.83312 0
6.61175 5.16688 0
0.62109 3.24319 0
9.37891 6.75681 0
0.993513 8.95692 0
9.00649 1.04308 0
3.20952 0.607835 0
6.79048 9.39217 0
5.95996 2.52333 0
4.04004 7.47667 0
9.40025 2.81773 0
0.599748 7.18227 0
6.68942 8.38477 0
3.31058 1.61523 0
8.12821 2.94579 0
1.87179 7.05421 0
4.68665 3.50657 0
5.31335 6.49343 0
5.66448 3.59554 0
4.33552 6.40446 0
7.26954 1.40977 0
2.73046 8.59023 0
3.84974 3.96206 0
6.15026 6.03794 0
1.54217 3.53905 0
8.45783 6.46095 0
8.23452 8.15285 0
1.76548 1.84715 0
6.50806 3.33112 0
3.49194 6.66888 0
7.94734 0.543515 0
2.05266 9.45649 0
4.22483 9.48671 0
5.77517 0.513292 0
7.72 8.91301 0
2.28 1.08699 0
9.57846 4.34313 0
0.421536 5.65687 0
7.26259 3.33952 0
2.73741 6.66048 0
7.79344 3.83429 0
2.20656 6.16571 0
4.22424 1.94096 0
5.77576 8.05904 0
7.99254 1.34644 0
2.00746 8.65356 0
6.32749 4.32535 0
3.67251 5.67465 0
6.30235 2.78853 0
3.69765 7.21147 0
2.85285 5.29409 0
7.14715 4.70591 0
0.561366 7.95999 0
9.43863 2.04001 0
2.3957 3.02027 0
7.6043 6.97973 0
8.76876 2.58763 0
1.23124 7.41237 0
6.52037 1.81613 0
3.47963 8.18387 0
8.98378 7.66113 0
1.01622 2.33887 0
6.97974 2.5002 0
3.02026 7.4998 0
8.54593 4.253 0
1.45407 5.747 0
8.70886 1.9771 0
1.29114 8.0229 0
3.124 3.7804 0
6.876 6.2196 0
1.82441 5.04241 0
8.17559 4.95759 0
8.86254 3.62748 0
1.13746 6.37252 0
6.27099 1.18788 0
3.72901 8.81212 0
9.58118 3.79512 0
0.418823 6.20488 0
3.41075 1.18565 0
6.58925 8.81435 0
5.5404 2.9167 0
4.4596 7.0833 0
7.48142 0.458518 0
2.51858 9.54148 0
7.51847 3.04244 0
2.48153 6.95756 0
9.5391 5.18555 0
0.460898 4.81445 0
7.2454 8.44076 0
2.7546 1.55924 0
6.14976 2.13813 0
3.85024 7.86187 0
5.63796 1.61663 0
4.36204 8.38337 0
8.21986 1.95595 0
1.78014 8.04405 0
1.88332 2.63688 0
8.11668 7.36312 0
7.8298 2.22093 0
2.1702 7.77907 0
0.409963 3.8 0
9.59004 6.2 0
7.37106 3.8083 0
2.62894 6.1917 0
3.9749 0.452243 0
6.0251 9.54776 0
6.30864 4.75267 0
3.69136 5.24733 0
4.57103 9.64404 0
5.42897 0.355958 0
3.40795 3.01712 0
6.59205 6.98288 0
4.07856 1.17727 0
5.92144 8.82273 0
1.10515 4.18115 0
8.89485 5.81885 0
8.18045 3.35016 0
1.81955 6.64984 0
4.17175 3.05726 0
5.82825 6.94274 0
0.985487 3.37993 0
9.01451 6.62007 0
2.46512 4.49055 0
7.53488 5.50945 0
6.7067 4.08155 0
3.2933 5.91845 0
6.73816 0.465187 0
3.26184 9.53481 0
7.56738 7.96459 0
2.43262 2.03541 0
8.80036 0.640149 0
1.19964 9.35985 0
2.25812 3.373 0
7.74188 6.627 0
2.72197 2.38582 0
7.27803 7.61418 0
5.15182 1.93496 0
4.84818 8.06504 0
4.83656 1.58969 0
5.16344 8.41031 0
1.907 4.11074 0
8.093 5.88926 0
6.83883 7.66777 0
3.16117 2.33223 0
4.92708 1.17927 0
5.07292 8.82073 0
3.7773 3.24435 0
6.2227 6.75565 0
0.621302 8.79532 0
9.3787 1.20468 0
1.60984 4.43474 0
8.39016 5.56526 0
8.92494 4.54539 0
1.07506 5.45461 0
2.98284 4.43603 0
7.01716 5.56397 0
4.79289 2.51787 0
5.20711 7.48213 0
3.63264 4.51428 0
6.36736 5.48572 0
4.65457 0.418829 0
5.34543 9.58117 0
6.78494 0.943406 0
3.21506 9.05659 0
9.59818 2.4451 0
0.401819 7.5549 0
4.23318 3.87641 0
5.76682 6.12359 0
2.54644 3.72357 0
7.45356 6.27643 0
5.31279 3.68055 0
4.68721 6.31945 0
8.6109 1.19569 0
1.3891 8.80431 0
8.08076 8.56361 0
1.91924 1.43639 0
1.86187 2.26093 0
8.13813 7.73907 0
9.12904 3.06216 0
0.870956 6.93784 0
3.57486 0.435306 0
6.42514 9.56469 0
0.858531 4.80179 0
9.14147 5.19821 0
6.51934 7.41072 0
3.48066 2.58928 0
7.45596 2.10834 0
2.54404 7.89166 0
3.81598 9.63401 0
6.18402 0.365986 0
9.56265 7.11425 0
0.437352 2.88575 0
8.32484 0.430153 0
1.67516 9.56985 0
5.31719 1.05831 0
4.68281 8.94169 0
5.57833 2.49535 0
4.42167 7.50465 0
4.92015 2.96185 0
5.07985 7.03815 0
3.86778 1.9472 0
6.13222 8.0528 0
2.29602 5.52958 0
7.70398 4.47042 0
8.73984 7.39469 0
1.26016 2.60531 0
3.45939 3.91818 0
6.54061 6.08182 0
7.26697 1.01817 0
2.73303 8.98183 0
7.90167 2.69323 0
2.09833 7.30677 0
8.58646 8.17389 0
1.41354 1.82611 0
2.94169 0.359989 0
7.05831 9.64001 0
0.364582 5.3535 0
9.63542 4.6465 0
2.29967 4.10849 0
7.70033 5.89151 0
3.03326 3.19731 0
6.96674 6.80269 0
9.59343 3.07986 0
0.406575 6.92014 0
5.84675 3.93438 0
4.15325 6.06562 0
1.53941 2.89734 0
8.46059 7.10266 0
8.01266 0.936029 0
1.98734 9.06397 0
3.12406 5.10034 0
6.87594 4.89966 0
8.88142 1.71695 0
1.11858 8.28305 0
0.407856 8.48054 0
9.59214 1.51946 0
7.65912 1.4105 0
2.34088 8.5895 0
1.88266 3.44254 0
8.11734 6.55746 0
6.84163 3.30306 0
3.15837 6.69694 0
7.22207 2.80036 0
2.77793 7.19964 0
0.330502 4.2171 0
9.6695 5.7829 0
9.19161 7.0572 0
0.808395 2.9428 0
9.63011 7.66365 0
0.369888 2.33635 0
1.21725 3.6958 0
8.78275 6.3042 0
7.08056 4.33419 0
2.91944 5.66581 0
6.00925 0.818106 0
3.99075 9.18189 0
7.78243 9.28285 0
2.21757 0.717148 0
4.64069 0.877813 0
5.35931 9.12219 0
7.1001 9.21 0
2.8999 0.790001 0
6.54866 3.67922 0
3.45134 6.32078 0
5.96117 3.47714 0
4.03883 6.52286 0
9.06334 2.67592 0
0.936663 7.32408 0
4.51071 3.21495 0
5.48929 6.78505 0
0.949293 8.06328 0
9.05071 1.93672 0
7.49025 8.70944 0
2.50975 1.29056 0
1.75504 5.37457 0
8.24496 4.62543 0
5.05868 2.27886 0
4.94132 7.72114 0
3.84489 2.50161 0
6.15511 7.49839 0
2.74397 2.99059 0
7.25603 7.00941 0
4.2292 2.69922 0
5.7708 7.30078 0
4.22013 1.49633 0
5.77987 8.50367 0
6.74975 8.03234 0
3.25025 1.96766 0
4.45246 9.24499 0
5.54754 0.755007 0
1.06078 8.61856 0
8.93922 1.38144 0
8.14748 3.98032 0
1.85252 6.01968 0
0.326907 3.45008 0
9.67309 6.54992 0
7.3835 1.72256 0
2.6165 8.27744 0
7.03676 0.319129 0
2.96324 9.68087 0
1.48824 4.8533 0
8.51176 5.1467 0
9.20445 3.78453 0
0.795551 6.21547 0
2.29917 0.318365 0
7.70083 9.68164 0
6.59746 2.68912 0
3.40254 7.31088 0
3.93137 4.30059 0
6.06863 5.69941 0
6.97363 1.63111 0
3.02637 8.36889 0
5.85665 1.35436 0
4.14335 8.64564 0
9.68037 3.447 0
0.319632 6.553 0
9.31572 7.81353 0
0.684279 2.18647 0
1.11856 5.0475 0
8.88144 4.9525 0
3.78223 3.62312 0
6.21777 6.37688 0
2.44333 4.83736 0
7.55667 5.16264 0
5.79677 1.92015 0
4.20323 8.07985 0
1.78382 3.78727 0
8.21618 6.21273 0
8.07042 3.66728 0
1.92958 6.33272 0
7.89936 8.06967 0
2.10064 1.93033 0
5.55629 3.26977 0
4.44371 6.73023 0
6.79915 2.08305 0
3.20085 7.91695 0
6.39544 1.50753 0
3.60456 8.49247 0
5.5361 1.31764 0
4.4639 8.68236 0
0.278422 4.54413 0
9.72158 5.45587 0
6.42625 8.20875 0
3.57375 1.79125 0
2.93051 3.55159 0
7.06949 6.44841 0
5.71058 9.67802 0
[...]
POINT_DATA 789
SCALARS GMDS_ID int 1
LOOKUP_TABLE default
0 1 2 3 4 5 6 7 8 9 10 11 12 13 14 15 16 17 18 19 20 21 22 23 24 25 26 27 28 29 30 31 32 33 34 35 36 37 38 39 40 41 42 43 44 45 46 47 48 49 50 51 52 53 54 55 56 57 58 59 60 61 62 63 64 65 66 67 68 69 70 71 72 73 74 75 76 77 78 79 80 81 82 83 84 85 86 87 88 89 90 91 92 93 94 95 96 97 98 99 100 101 102 103 104 105 106 107 108 109 110 111 112 113 114 115 116 117 118 119 120 121 122 123 124 125 126 127 128 129 130 131 132 133 134 135 136 137 138 139 140 141 142 143 144 145 146 147 148 149 150 151 152 153 154 155 156 157 158 159 160 161 162 163 164 165 166 167 168 169 170 171 172 173 174 175 176 177 178 179 180 181 182 183 184 185 186 187 188 189 190 191 192 193 194 195 196 197 198 199 200 201 202 203 204 205 206 207 208 209 210 211 212 213 214 215 216 217 218 219 220 221 222 223 224 225 226 227 228 229 230 231 232 233 234 235 236 237 238 239 240 241 242 243 244 245 246 247 248 249 250 251 252 253 254 255 256 257 258 259 260 261 262 263 264 265 266 267 268 269 270 271 272 273 274 275 276 277 278 279 280 281 282 283 284 285 286 287 288 289 290 291 292 293 294 295 296 297 298 299 300 301 302 303 304 305 306 307 308 309 310 311 312 313 314 315 316 317 318 319 320 321 322 323 324 325 326 327 328 329 330 331 332 333 334 335 336 337 338 339 340 341 342 343 344 345 346 347 348 349 350 351 352 353 354 355 356 357 358 359 360 361 362 363 364 365 366 367 368 369 370 371 372 373 374 375 376 377 378 379 380 381 382 383 384 385 386 387 388 389 390 391 392 393 394 395 396 397 398 399 400 401 402 403 404 405 406 407 408 409 410 411 412 413 414 415 416 417 418 419 420 421 422 423 424 425 426 427 428 429 430 431 432 433 434 435 436 437 438 439 440 441 442 443 444 445 446 447 448 449 450 451 452 453 454 455 456 457 458 459 460 461 462 463 464 465 466 467 468 469 470 471 472 473 474 475 476 477 478 479 480 481 482 483 484 485 486 487 488 489 490 491 492 493 494 495 496 497 498 499 500 501 502 503 504 505 506 507 508 509 510 511 512 513 514 515 516 517 518 519 520 521 522 523 524 525 526 527 528 529 530 531 532 533 534 535 536 537 538 539 540 541 542 543 544 545 546 547 548 549 550 551 552 553 554 555 556 557 558 559 560 561 562 563 564 565 566 567 568 569 570 571 572 573 574 575 576 577 578 579 580 581 582 583 584 585 586 587 588 589 590 591 592 593 594 595 596 597 598 599 600 601 602 603 604 605 606 607 608 609 610 611 612 613 614 615 616 617 618 619 620 621 622 623 624 625 626 627 628 629 630 631 632 633 634 635 636 637 638 639 640 641 642 643 644 645 646 647 648 649 650 651 652 653 654 655 656 657 658 659 660 661 662 663 664 665 666 667 668 669 670 671 672 673 674 675 676 677 678 679 680 681 682 683 684 685 686 687 688 689 690 691 692 693 694 695 696 697 698 699 700 701 702 703 704 705 706 707 708 709 710 711 712 713 714 715 716 717 718 719 720 721 722 723 724 725 726 727 728 729 730 731 732 733 734 735 736 737 738 739 740 741 742 743 744 745 746 747 748 749 750 751 752 753 754 755 756 757 758 759 760 761 762 763 764 765 766 767 768 769 770 771 772 773 774 775 776 777 778 779 780 781 782 783 784 785 786 787 788 
SCALARS angle float 1
LOOKUP_TABLE default
0 0 0 0 0 0 -0 0 0 0.19635 0 6.08684 0 0 6.08684 0 0.19635 5.49779 4.71239 3.92699 3.14159 2.35619 1.5708 0.785398 0.785398 1.5708 2.35619 3.14159 3.92699 4.71239 5.49779 5.49779 4.71239 3.92699 3.14159 2.35619 1.5708 0.785398 0.785398 1.5708 2.35619 3.14159 3.92699 4.71239 5.49779 1.5708 3.14159 4.71239 6.28319 1.5708 3.14159 4.71239 1.5708 3.14159 4.71239 6.28319 1.5708 3.14159 4.71239 0 0 0 0 0 0 0 0 0 0 0 0 0 0 0 0 0 0 0 0 0 0 0 0 0 0 0 0 0 0 0 0 0 0 0 0 0 0 0 0 0 0 0 0 0 0 0 0 0 0 0 0 0 0 0 0 0.149917 0.149917 0.14188 0.14188 0.119138 0.119138 0.0913409 0.0913409 0.102112 0.102112 0.261072 0.261072 0.109032 0.109032 0.211667 0.211667 0.443579 0.443579 0.0546665 0.0546665 0.0567119 0.0567119 0.200041 0.200041 0.0432437 0.0432437 0.247585 0.247585 6.2375 6.2375 6.08819 6.08819 0.374394 0.374394 0.29542 0.29542 0.0483107 0.0483107 0.265348 0.265348 0.148134 0.148134 0.0362095 0.0362095 0.115794 0.115794 0.0225029 0.0225029 6.27377 6.27377 0.0766773 0.0766773 0.197897 0.197897 1.75383 1.75383 0.597731 0.597731 0.0609781 0.0609781 0.123606 0.123606 0.123544 0.123544 0.202925 0.202925 5.97375 5.97375 0.201017 0.201017 0.865811 0.865811 0.107891 0.107891 4.0149 4.0149 0.022438 0.022438 0.0269344 0.0269344 0.181577 0.181577 6.17395 6.17395 0.0475395 0.0475395 0.034962 0.034962 0.0370528 0.0370528 0.815942 0.815942 0.413932 0.413932 0.157849 0.157849 0.021772 0.021772 0.109998 0.109998 0.0591345 0.0591345 0.0907485 0.0907485 0.190255 0.190255 0.0966104 0.0966104 0.254922 0.254922 0.15083 0.15083 5.95909 5.95909 0.0444309 0.0444309 0.0698734 0.0698734 0.331814 0.331814 0.0832761 0.0832761 0.0607371 0.0607371 0.0308016 0.0308016 0.0532038 0.0532038 0.0120324 0.0120324 0.144351 0.144351 0.375641 0.375641 6.21421 6.21421 1.35615 1.35615 0.10851 0.10851 0.151825 0.151825 0.00242167 0.00242167 0.235881 0.235881 0.0979549 0.0979549 5.91057 5.91057 0.786548 0.786548 0.164189 0.164189 0.708559 0.708559 0.00544338 0.00544338 3.07367 3.07367 0.275849 0.275849 0.4342 0.4342 0.0221364 0.0221364 1.49049 1.49049 0.0107914 0.0107914 0.16152 0.16152 0.11716 0.11716 0.0762895 0.0762895 0.308938 0.308938 6.1243 6.1243 0.195031 0.195031 0.207073 0.207073 6.19596 6.19596 0.162164 0.162164 0.0487498 0.0487498 0.118312 0.118312 5.0877 5.0877 0.157991 0.157991 0.062389 0.062389 0.0993125 0.0993125 0.312843 0.312843 0.0963691 0.0963691 0.0423818 0.0423818 0.0734773 0.0734773 0.0136218 0.0136218 0.168661 0.168661 0.175115 0.175115 0.168595 0.168595 0.139641 0.139641 0.010669 0.010669 0.676145 0.676145 0.122707 0.122707 0.0725435 0.0725435 0.173147 0.173147 6.19742 6.19742 0.153118 0.153118 6.27137 6.27137 0.154109 0.154109 0.0303144 0.0303144 0.143841 0.143841 0.014339 0.014339 0.120441 0.120441 0.073483 0.073483 0.023743 0.023743 0.0881297 0.0881297 6.18565 6.18565 6.21924 6.21924 0.199765 0.199765 0.222349 0.222349 0.0420667 0.0420667 1.02778 1.02778 1.60241 1.60241 0.127292 0.127292 0.349246 0.349246 0.0693213 0.0693213 0.0591536 0.0591536 0.098674 0.098674 0.226982 0.226982 0.0458624 0.0458624 0.00550585 0.00550585 5.03263 5.03263 0.0718915 0.0718915 0.039663 0.039663 0.350394 0.350394 0.0374129 0.0374129 0.855213 0.855213 0.0170043 0.0170043 0.0880545 0.0880545 6.2496 6.2496 5.42286 5.42286 0.195051 0.195051 0.312723 0.312723 0.599721 0.599721 2.49508 2.49508 3.16321 3.16321 0.021966 0.021966 0.0463285 0.0463285 0.0256709 0.0256709 0.129242 0.129242 0.160294 0.160294 0.0263343 0.0263343 6.19211 6.19211 0.848487 0.848487 0.0422291 0.0422291 0.120896 0.120896 6.27755 6.27755 0.110156 0.110156 0.13519 0.13519 5.62776 5.62776 0.485396 0.485396 0.158987 0.158987 0.123514 0.123514 3.63577 3.63577 0.0969442 0.0969442 0.011242 0.011242 0.164542 0.164542 0.187012 0.187012 0.00387787 0.00387787 1.92617 1.92617 6.08826 6.08826 0.430386 0.430386 0.260857 0.260857 0.104227 0.104227 5.81506 5.81506 0.228242 0.228242 0.0529398 0.0529398 0.2088 0.2088 0.157415 0.157415 0.00246906 0.00246906 6.10722 6.10722 6.08037 6.08037 6.27683 6.27683 0.186418 0.186418 0.043461 0.043461 0.854506 0.854506 0.0369903 0.0369903 0.277135 0.277135 0.311062 0.311062 0.552687 0.552687 0.0186056 0.0186056 6.0662 6.0662 0.00734586 0.00734586 1.12918 1.12918 0.0870065 0.0870065 0.0676684 0.0676684 0.075477 0.075477 0.196879 0.196879 0.000613552 0.000613552 0.07662 0.07662 0.244579 0.244579 0.0313097 0.0313097 0.293345 0.293345 0.0899776 0.0899776 6.25311 6.25311 0.171967 0.171967 0.0381541 0.0381541 0.0659444 0.0659444 0.02634 0.02634 0.182044 0.182044 0.175527 0.175527 1.96929 1.96929 0.13806 0.13806 0.0666335 0.0666335 0.00782071 0.00782071 5.55638 5.55638 0.041314 0.041314 0.105568 0.105568 0.18346 0.18346 0.0939383 0.0939383 0.0642805 0.0642805 0.0951487 0.0951487 2.45243 2.45243 0.321952 0.321952 0.141787 0.141787 0.0969401 0.0969401 0.0565956 0.0565956 0.00471555 0.00471555 0.161841 0.161841 0.234708 0.234708 0.014049 0.014049 0.07906 0.07906 0.109072 0.109072 0.0520187 0.0520187 0.0486783 0.0486783 0.0607921 0.0607921 0.0513017 0.0513017 0.189993 0.189993 2.50777 2.50777 0.00710951 0.00710951 0.00950334 0.00950334 0.13 0.13 6.24827 6.24827 0.488382 0.488382 0.198938 0.198938 0.29195 0.29195 0.348602 0.348602 0.116014 0.116014 0.183008 0.183008 0.0229955 0.0229955 6.1555 6.1555 0.163802 0.163802 0.134887 0.134887 0.463644 0.463644 0.158813 0.158813 0.152199 0.152199 6.13376 6.13376 1.91041 1.91041 6.08222 6.08222 0.114846 0.114846 2.8948 2.8948 0.19358 0.19358 0.345873 0.345873 0.696563 0.696563 0.398679 0.398679 5.27269 5.27269 0.0358334 0.0358334 0.214513 0.214513 6.27687 6.27687 0.111382 0.111382 6.19426 6.19426 0.153741 0.153741 4.02193 4.02193 6.15177 6.15177 0.00623572 0.00623572 0.0874272 0.0874272 0.265975 0.265975 0.348848 0.348848 2.99833 2.99833 0.0188919 0.0188919 0.239311 0.239311 0.383255 0.383255 0.257516 0.257516 0.373311 0.373311 5.83934 5.83934 6.24887 6.24887 0.0766304 0.0766304 0.139528 0.139528 1.01777 1.01777 0.0660673 0.0660673 0.022571 0.022571 1.15919 1.15919 0.188328 0.188328 0.113093 0.113093 0.0401953 0.0401953 0.131373 0.131373 1.35027 1.35027 0.415059 0.415059 0.0953846 0.0953846 0.00734851 0.00734851 0.101717 0.101717 5.55728 5.55728 0.0146649 0.0146649 0.0496163 0.0496163 0.00754462 0.00754462 0.109266 0.109266 5.71811 5.71811 0.269151 0.269151 2.9943 2.9943 6.27078 6.27078 1.36387 1.36387 0.0459159 0.0459159 0.0582195 0.0582195 0.751372 0.751372 1.89841 1.89841 0.165047 0.165047 0.090571 0.090571 6.21171 6.21171 0.0754829 0.0754829 0.17014 0.17014 0.255197 0.255197 0.0872382 0.0872382 6.25499 6.25499 0.0158212 0.0158212 0.29691 0.29691 0.411101 0.411101 0.0202903 0.0202903 0.0385289 0.0385289 
VECTORS cross_X float
1 0 0 1 0 0 1 0 0 1 0 0 1 0 0 1 0 0 1 0 0 1 0 0 1 0 0 0.998795 0.0490677 0 1 0 0 0.0490677 0.998795 0 1 0 0 1 0 0 0.0490677 0.998795 0 1 0 0 0.998795 0.0490677 0 0.19509 0.980785 0 0.382683 0.92388 0 0.55557 0.83147 0 0.707107 0.707107 0 0.83147 0.55557 0 0.92388 0.382683 0 0.980785 0.19509 0 0.980785 0.19509 0 0.92388 0.382683 0 0.83147 0.55557 0 0.707107 0.707107 0 0.55557 0.83147 0 0.382683 0.92388 0 0.19509 0.980785 0 0.19509 0.980785 0 0.382683 0.92388 0 0.55557 0.83147 0 0.707107 0.707107 0 0.83147 0.55557 0 0.92388 0.382683 0 0.980785 0.19509 0 0.980785 0.19509 0 0.92388 0.382683 0 0.83147 0.55557 0 0.707107 0.707107 0 0.55557 0.83147 0 0.382683 0.92388 0 0.19509 0.980785 0 0.92388 0.382683 0 0.707107 0.707107 0 0.382683 0.92388 0 2.51894e-12 1 0 0.92388 0.382683 0 0.707107 0.707107 0 0.382683 0.92388 0 0.92388 0.382683 0 0.707107 0.707107 0 0.382683 0.92388 0 2.51894e-12 1 0 0.92388 0.382683 0 0.707107 0.707107 0 0.382683 0.92388 0 1 0 0 1 0 0 1 0 0 1 0 0 1 0 0 1 0 0 1 0 0 1 0 0 1 0 0 1 0 0 1 0 0 1 0 0 1 0 0 1 0 0 1 0 0 1 0 0 1 0 0 1 0 0 1 0 0 1 0 0 1 0 0 1 0 0 1 0 0 1 0 0 1 0 0 1 0 0 1 0 0 1 0 0 1 0 0 1 0 0 1 0 0 1 0 0 1 0 0 1 0 0 1 0 0 1 0 0 1 0 0 1 0 0 1 0 0 1 0 0 1 0 0 1 0 0 1 0 0 1 0 0 1 0 0 1 0 0 1 0 0 1 0 0 1 0 0 1 0 0 1 0 0 1 0 0 1 0 0 1 0 0 1 0 0 1 0 0 0.999298 0.0374704 0 0.999298 0.0374704 0 0.999371 0.0354625 0 0.999371 0.0354625 0 0.999556 0.0297802 0 0.999556 0.0297802 0 0.999739 0.0228332 0 0.999739 0.0228332 0 0.999674 0.0255251 0 0.999674 0.0255251 0 0.997871 0.0652218 0 0.997871 0.0652218 0 0.999629 0.0272546 0 0.999629 0.0272546 0 0.9986 0.0528921 0 0.9986 0.0528921 0 0.993857 0.110668 0 0.993857 0.110668 0 0.999907 0.0136662 0 0.999907 0.0136662 0 0.999899 0.0141775 0 0.999899 0.0141775 0 0.99875 0.0499895 0 0.99875 0.0499895 0 0.999942 0.0108107 0 0.999942 0.0108107 0 0.998085 0.0618567 0 0.998085 0.0618567 0 0.0114217 0.999935 0 0.0114217 0.999935 0 0.0487301 0.998812 0 0.0487301 0.998812 0 0.995623 0.0934619 0 0.995623 0.0934619 0 0.997274 0.0737879 0 0.997274 0.0737879 0 0.999927 0.0120774 0 0.999927 0.0120774 0 0.997801 0.0662883 0 0.997801 0.0662883 0 0.999314 0.037025 0 0.999314 0.037025 0 0.999959 0.00905226 0 0.999959 0.00905226 0 0.999581 0.0289444 0 0.999581 0.0289444 0 0.999984 0.00562569 0 0.999984 0.00562569 0 0.00235363 0.999997 0 0.00235363 0.999997 0 0.999816 0.0191681 0 0.999816 0.0191681 0 0.998776 0.049454 0 0.998776 0.049454 0 0.905408 0.424543 0 0.905408 0.424543 0 0.988856 0.148877 0 0.988856 0.148877 0 0.999884 0.0152439 0 0.999884 0.0152439 0 0.999523 0.0308966 0 0.999523 0.0308966 0 0.999523 0.0308811 0 0.999523 0.0308811 0 0.998713 0.0507095 0 0.998713 0.0507095 0 0.0772824 0.997009 0 0.0772824 0.997009 0 0.998738 0.0502331 0 0.998738 0.0502331 0 0.976665 0.214767 0 0.976665 0.214767 0 0.999636 0.0269694 0 0.999636 0.0269694 0 0.537163 0.843478 0 0.537163 0.843478 0 0.999984 0.00560946 0 0.999984 0.00560946 0 0.999977 0.00673355 0 0.999977 0.00673355 0 0.99897 0.0453787 0 0.99897 0.0453787 0 0.0273064 0.999627 0 0.0273064 0.999627 0 0.999929 0.0118846 0 0.999929 0.0118846 0 0.999962 0.00874039 0 0.999962 0.00874039 0 0.999957 0.00926308 0 0.999957 0.00926308 0 0.979267 0.202574 0 0.979267 0.202574 0 0.99465 0.103298 0 0.99465 0.103298 0 0.999221 0.039452 0 0.999221 0.039452 0 0.999985 0.00544298 0 0.999985 0.00544298 0 0.999622 0.027496 0 0.999622 0.027496 0 0.999891 0.0147831 0 0.999891 0.0147831 0 0.999743 0.0226852 0 0.999743 0.0226852 0 0.998869 0.0475457 0 0.998869 0.0475457 0 0.999708 0.0241503 0 0.999708 0.0241503 0 0.99797 0.0636873 0 0.99797 0.0636873 0 0.999289 0.0376987 0 0.999289 0.0376987 0 0.0809343 0.996719 0 0.0809343 0.996719 0 0.999938 0.0111075 0 0.999938 0.0111075 0 0.999847 0.0174675 0 0.999847 0.0174675 0 0.996561 0.0828585 0 0.996561 0.0828585 0 0.999783 0.0208175 0 0.999783 0.0208175 0 0.999885 0.0151837 0 0.999885 0.0151837 0 0.99997 0.00770033 0 0.99997 0.00770033 0 0.999912 0.0133006 0 0.999912 0.0133006 0 0.999995 0.0030081 0 0.999995 0.0030081 0 0.999349 0.03608 0 0.999349 0.03608 0 0.995594 0.0937723 0 0.995594 0.0937723 0 0.0172428 0.999851 0 0.0172428 0.999851 0 0.943075 0.33258 0 0.943075 0.33258 0 0.999632 0.0271242 0 0.999632 0.0271242 0 0.99928 0.0379472 0 0.99928 0.0379472 0 1 0.000605417 0 1 0.000605417 0 0.998262 0.058936 0 0.998262 0.058936 0 0.9997 0.0244863 0 0.9997 0.0244863 0 0.0930188 0.995664 0 0.0930188 0.995664 0 0.980729 0.195372 0 0.980729 0.195372 0 0.999158 0.0410356 0 0.999158 0.0410356 0 0.984352 0.176215 0 0.984352 0.176215 0 0.999999 0.00136085 0 0.999999 0.00136085 0 0.719012 0.694998 0 0.719012 0.694998 0 0.997623 0.0689076 0 0.997623 0.0689076 0 0.994114 0.108337 0 0.994114 0.108337 0 0.999985 0.00553408 0 0.999985 0.00553408 0 0.931375 0.36406 0 0.931375 0.36406 0 0.999996 0.00269785 0 0.999996 0.00269785 0 0.999185 0.040369 0 0.999185 0.040369 0 0.999571 0.0292857 0 0.999571 0.0292857 0 0.999818 0.0190712 0 0.999818 0.0190712 0 0.997019 0.0771578 0 0.997019 0.0771578 0 0.0397102 0.999211 0 0.0397102 0.999211 0 0.998812 0.0487384 0 0.998812 0.0487384 0 0.99866 0.0517451 0 0.99866 0.0517451 0 0.0218044 0.999762 0 0.0218044 0.999762 0 0.999178 0.0405299 0 0.999178 0.0405299 0 0.999926 0.0121872 0 0.999926 0.0121872 0 0.999563 0.0295737 0 0.999563 0.0295737 0 0.294441 0.95567 0 0.294441 0.95567 0 0.99922 0.0394875 0 0.99922 0.0394875 0 0.999878 0.0155966 0 0.999878 0.0155966 0 0.999692 0.0248256 0 0.999692 0.0248256 0 0.996943 0.0781311 0 0.996943 0.0781311 0 0.99971 0.0240899 0 0.99971 0.0240899 0 0.999944 0.0105953 0 0.999944 0.0105953 0 0.999831 0.0183683 0 0.999831 0.0183683 0 0.999994 0.00340544 0 0.999994 0.00340544 0 0.999111 0.0421527 0 0.999111 0.0421527 0 0.999042 0.0437648 0 0.999042 0.0437648 0 0.999112 0.0421363 0 0.999112 0.0421363 0 0.999391 0.0349031 0 0.999391 0.0349031 0 0.999996 0.00266726 0 0.999996 0.00266726 0 0.985747 0.168232 0 0.985747 0.168232 0 0.99953 0.030672 0 0.99953 0.030672 0 0.999836 0.0181349 0 0.999836 0.0181349 0 0.999063 0.0432733 0 0.999063 0.0432733 0 0.0214387 0.99977 0 0.0214387 0.99977 0 0.999267 0.0382702 0 0.999267 0.0382702 0 0.00295371 0.999996 0 0.00295371 0.999996 0 0.999258 0.0385177 0 0.999258 0.0385177 0 0.999971 0.00757854 0 0.999971 0.00757854 0 0.999354 0.0359524 0 0.999354 0.0359524 0 0.999994 0.00358474 0 0.999994 0.00358474 0 0.999547 0.0301057 0 0.999547 0.0301057 0 0.999831 0.0183697 0 0.999831 0.0183697 0 0.999982 0.00593571 0 0.999982 0.00593571 0 0.999757 0.0220306 0 0.999757 0.0220306 0 0.0243822 0.999703 0 0.0243822 0.999703 0 0.0159849 0.999872 0 0.0159849 0.999872 0 0.998753 0.0499206 0 0.998753 0.0499206 0 0.998455 0.0555587 0 0.998455 0.0555587 0 0.999945 0.0105165 0 0.999945 0.0105165 0 0.967171 0.254126 0 0.967171 0.254126 0 0.920827 0.389972 0 0.920827 0.389972 0 0.999494 0.0318177 0 0.999494 0.0318177 0 0.996191 0.0872007 0 0.996191 0.0872007 0 0.99985 0.0173295 0 0.99985 0.0173295 0 0.999891 0.0147879 0 0.999891 0.0147879 0 0.999696 0.024666 0 0.999696 0.024666 0 0.99839 0.0567151 0 0.99839 0.0567151 0 0.999934 0.0114653 0 0.999934 0.0114653 0 0.999999 0.00137646 0 0.999999 0.00137646 0 0.307569 0.951526 0 0.307569 0.951526 0 0.999838 0.0179719 0 0.999838 0.0179719 0 0.999951 0.00991559 0 0.999951 0.00991559 0 0.996166 0.0874865 0 0.996166 0.0874865 0 0.999956 0.00935309 0 0.999956 0.00935309 0 0.977231 0.212178 0 0.977231 0.212178 0 0.999991 0.00425107 0 0.999991 0.00425107 0 0.999758 0.0220119 0 0.999758 0.0220119 0 0.00839529 0.999965 0 0.00839529 0.999965 0 0.213426 0.976959 0 0.213426 0.976959 0 0.998811 0.0487433 0 0.998811 0.0487433 0 0.996945 0.078101 0 0.996945 0.078101 0 0.988782 0.149369 0 0.988782 0.149369 0 0.811682 0.5841 0 0.811682 0.5841 0 0.703276 0.710917 0 0.703276 0.710917 0 0.999985 0.00549146 0 0.999985 0.00549146 0 0.999933 0.0115819 0 0.999933 0.0115819 0 0.999979 0.00641767 0 0.999979 0.00641767 0 0.999478 0.032305 0 0.999478 0.032305 0 0.999197 0.0400627 0 0.999197 0.0400627 0 0.999978 0.00658353 0 0.999978 0.00658353 0 0.0227658 0.999741 0 0.0227658 0.999741 0 0.977586 0.210534 0 0.977586 0.210534 0 0.999944 0.0105571 0 0.999944 0.0105571 0 0.999543 0.0302194 0 0.999543 0.0302194 0 0.00140778 0.999999 0 0.00140778 0.999999 0 0.999621 0.0275354 0 0.999621 0.0275354 0 0.999429 0.0337912 0 0.999429 0.0337912 0 0.163124 0.986606 0 0.163124 0.986606 0 0.992646 0.121051 0 0.992646 0.121051 0 0.99921 0.0397363 0 0.99921 0.0397363 0 0.999523 0.0308737 0 0.999523 0.0308737 0 0.61458 0.788854 0 0.61458 0.788854 0 0.999706 0.0242337 0 0.999706 0.0242337 0 0.999996 0.00281049 0 0.999996 0.00281049 0 0.999154 0.0411238 0 0.999154 0.0411238 0 0.998907 0.0467359 0 0.998907 0.0467359 0 1 0.000969468 0 1 0.000969468 0 0.886282 0.463147 0 0.886282 0.463147 0 0.0487127 0.998813 0 0.0487127 0.998813 0 0.994217 0.107389 0 0.994217 0.107389 0 0.997874 0.0651681 0 0.997874 0.0651681 0 0.999661 0.0260539 0 0.999661 0.0260539 0 0.116764 0.99316 0 0.116764 0.99316 0 0.998372 0.0570297 0 0.998372 0.0570297 0 0.999912 0.0132346 0 0.999912 0.0132346 0 0.998638 0.0521762 0 0.998638 0.0521762 0 0.999226 0.0393435 0 0.999226 0.0393435 0 1 0.000617265 0 1 0.000617265 0 0.0439772 0.999033 0 0.0439772 0.999033 0 0.050683 0.998715 0 0.050683 0.998715 0 0.00158766 0.999999 0 0.00158766 0.999999 0 0.998914 0.0465876 0 0.998914 0.0465876 0 0.999941 0.010865 0 0.999941 0.010865 0 0.977269 0.212005 0 0.977269 0.212005 0 0.999957 0.00924744 0 0.999957 0.00924744 0 0.997601 0.0692283 0 0.997601 0.0692283 0 0.996978 0.0776872 0 0.996978 0.0776872 0 0.990469 0.137732 0 0.990469 0.137732 0 0.999989 0.00465139 0 0.999989 0.00465139 0 0.0542194 0.998529 0 0.0542194 0.998529 0 0.999998 0.00183646 0 0.999998 0.00183646 0 0.960419 0.27856 0 0.960419 0.27856 0 0.999763 0.0217499 0 0.999763 0.0217499 0 0.999857 0.0169163 0 0.999857 0.0169163 0 0.999822 0.0188681 0 0.999822 0.0188681 0 0.998789 0.0491999 0 0.998789 0.0491999 0 1 0.000153388 0 1 0.000153388 0 0.999817 0.0191538 0 0.999817 0.0191538 0 0.998131 0.0611065 0 0.998131 0.0611065 0 0.999969 0.00782734 0 0.999969 0.00782734 0 0.997312 0.0732706 0 0.997312 0.0732706 0 0.999747 0.0224925 0 0.999747 0.0224925 0 0.00751757 0.999972 0 0.00751757 0.999972 0 0.999076 0.0429785 0 0.999076 0.0429785 0 0.999955 0.00953839 0 0.999955 0.009