# vtk DataFile Version 3.0
Generated by GMDS VTK Writer

ASCII
DATASET UNSTRUCTURED_GRID
POINTS 743 float
0 0 0
10 0 0
10 10 0
0 10 0
5 5 0
10 8 0
8 10 0
8 0 0
8 2 0
10 2 0
2 0 0
0 2 0
0 8 0
2 8 0
2 10 0
5 7 0
5 3 0
0.0384294 8.39018 0
0.152241 8.76537 0
0.337061 9.11114 0
0.585786 9.41421 0
0.88886 9.66294 0
1.23463 9.84776 0
1.60982 9.96157 0
8.03843 9.60982 0
8.15224 9.23463 0
8.33706 8.88886 0
8.58579 8.58579 0
8.88886 8.33706 0
9.23463 8.15224 0
9.60982 8.03843 0
9.96157 1.60982 0
9.84776 1.23463 0
9.66294 0.88886 0
9.41421 0.585786 0
9.11114 0.337061 0
8.76537 0.152241 0
8.39018 0.0384294 0
1.96157 0.390181 0
1.84776 0.765367 0
1.66294 1.11114 0
1.41421 1.41421 0
1.11114 1.66294 0
0.765367 1.84776 0
0.390181 1.96157 0
2.4 10 0
2.8 10 0
3.2 10 0
3.6 10 0
4 10 0
4.4 10 0
4.8 10 0
5.2 10 0
5.6 10 0
6 10 0
6.4 10 0
6.8 10 0
7.2 10 0
7.6 10 0
10 7.6 0
10 7.2 0
10 6.8 0
10 6.4 0
10 6 0
10 5.6 0
10 5.2 0
10 4.8 0
10 4.4 0
10 4 0
10 3.6 0
10 3.2 0
10 2.8 0
10 2.4 0
7.6 0 0
7.2 0 0
6.8 0 0
6.4 0 0
6 0 0
5.6 0 0
5.2 0 0
4.8 0 0
4.4 0 0
4 0 0
3.6 0 0
3.2 0 0
2.8 0 0
2.4 0 0
0 2.4 0
0 2.8 0
0 3.2 0
0 3.6 0
0 4 0
0 4.4 0
0 4.8 0
0 5.2 0
0 5.6 0
0 6 0
0 6.4 0
0 6.8 0
0 7.2 0
0 7.6 0
4.60982 6.96157 0
4.23463 6.84776 0
3.88886 6.66294 0
3.58579 6.41421 0
3.33706 6.11114 0
3.15224 5.76537 0
3.03843 5.39018 0
3 5 0
3.03843 4.60982 0
3.15224 4.23463 0
3.33706 3.88886 0
3.58579 3.58579 0
3.88886 3.33706 0
4.23463 3.15224 0
4.60982 3.03843 0
5.39018 3.03843 0
5.76537 3.15224 0
6.11114 3.33706 0
6.41421 3.58579 0
6.66294 3.88886 0
6.84776 4.23463 0
6.96157 4.60982 0
7 5 0
6.96157 5.39018 0
6.84776 5.76537 0
6.66294 6.11114 0
6.41421 6.41421 0
6.11114 6.66294 0
5.76537 6.84776 0
5.39018 6.96157 0
7.90047 2.09953 0
2.09953 7.90047 0
6.76858 8.24023 0
3.23142 1.75977 0
8.20456 6.68691 0
1.79544 3.31309 0
3.65903 8.37188 0
8.37808 3.63569 0
6.34097 1.62812 0
1.62192 6.36431 0
5.26929 8.45438 0
4.73071 1.54562 0
8.45438 5.26929 0
1.54562 4.73071 0
7.80012 7.78514 0
2.19988 2.21486 0
2.65378 8.88217 0
7.34622 1.11783 0
8.88217 2.65378 0
1.11783 7.34622 0
3.10196 7.4527 0
6.89804 2.5473 0
1.27791 8.5926 0
8.72209 1.4074 0
6.97975 7.28139 0
3.02025 2.71861 0
3.96436 1.02726 0
6.03564 8.97274 0
1.02726 3.96436 0
8.97274 6.03564 0
4.37449 8.99115 0
5.62551 1.00885 0
8.99115 4.37449 0
1.00885 5.62551 0
2.53872 6.64342 0
7.46128 3.35658 0
5.8942 7.74705 0
4.1058 2.25295 0
7.79413 5.90518 0
2.20587 4.09482 0
4.40669 7.86823 0
5.59331 2.13177 0
7.87081 4.49049 0
2.12919 5.50951 0
9.03446 7.2245 0
7.2245 9.03446 0
0.96554 2.7755 0
2.7755 0.96554 0
8.12578 0.827253 0
1.87422 9.17275 0
3.38697 9.18386 0
6.61303 0.816143 0
9.18386 3.38697 0
0.816143 6.61303 0
7.45335 6.7057 0
2.54665 3.2943 0
8.12739 2.90238 0
1.87261 7.09762 0
0.75259 8.03523 0
9.24741 1.96477 0
7.19623 1.8714 0
2.80377 8.1286 0
3.85643 7.48169 0
6.14357 2.51831 0
4.60752 0.696313 0
5.39248 9.30369 0
9.30369 5.39248 0
0.696313 4.60752 0
7.71459 8.51902 0
2.28541 1.48098 0
8.5957 7.74684 0
1.4043 2.25316 0
5.18676 7.70007 0
4.81324 2.29993 0
7.71971 5.17398 0
2.28029 4.82602 0
8.54927 2.02796 0
1.45073 7.97204 0
2.55206 5.98918 0
7.44794 4.01082 0
7.87726 1.4726 0
2.12274 8.5274 0
9.36271 6.64729 0
0.637289 3.35271 0
3.35271 0.637289 0
6.64729 9.36271 0
6.27769 7.26797 0
3.72231 2.73203 0
7.5067 2.64646 0
2.4933 7.35354 0
6.08641 8.37944 0
3.91359 1.62056 0
8.38324 6.12527 0
1.61676 3.87473 0
7.79293 7.17182 0
2.20707 2.82818 0
6.88414 3.19169 0
3.11586 6.80831 0
7.18313 7.8277 0
2.81687 2.1723 0
8.74075 0.794949 0
1.25925 9.20505 0
4.23242 8.49468 0
5.76758 1.50532 0
8.44506 4.24546 0
1.55494 5.75454 0
2.89529 9.41266 0
7.10471 0.587339 0
9.4187 2.89802 0
0.581301 7.10198 0
4.0079 9.41736 0
5.9921 0.582637 0
9.41736 4.0079 0
0.582637 5.9921 0
0.712545 8.62569 0
9.28746 1.37431 0
8.18735 8.18967 0
1.81265 1.81033 0
5.26785 0.573297 0
4.73215 9.4267 0
9.4267 4.73215 0
0.573297 5.26785 0
3.19219 8.66937 0
6.80781 1.33063 0
8.67412 3.18031 0
1.32588 6.81969 0
6.88628 6.71685 0
3.11372 3.28315 0
7.21798 6.16311 0
2.78202 3.83689 0
3.36278 1.20685 0
6.63722 8.79315 0
1.20685 3.36278 0
8.79315 6.63722 0
3.43095 7.86639 0
6.56905 2.13361 0
6.59844 7.72641 0
3.40156 2.27359 0
7.66743 0.518092 0
2.33257 9.48191 0
3.90769 8.86321 0
6.09231 1.13679 0
8.86321 3.90769 0
1.13679 6.09231 0
0.5389 4.20163 0
9.4611 5.79837 0
4.20163 0.5389 0
5.79837 9.4611 0
8.54331 7.18215 0
1.45669 2.81785 0
7.18056 8.54625 0
2.81944 1.45375 0
4.92784 8.90866 0
5.07216 1.09134 0
8.90866 4.92784 0
1.09134 5.07216 0
9.47701 7.53258 0
0.522993 2.46742 0
7.53258 9.47701 0
2.46742 0.522993 0
4.25149 7.37719 0
5.74851 2.62281 0
3.59248 7.07625 0
6.40752 2.92375 0
7.85785 3.62784 0
2.14215 6.37216 0
4.7804 8.2838 0
5.2196 1.7162 0
8.2838 4.7804 0
1.7162 5.2196 0
7.54666 4.74294 0
2.45334 5.25706 0
4.069 7.98681 0
5.931 2.01319 0
7.88462 6.40201 0
2.11538 3.59799 0
4.18313 1.31872 0
5.81687 8.68128 0
1.31818 4.17758 0
8.68182 5.82242 0
9.5133 2.40416 0
0.486698 7.59584 0
4.29615 2.70188 0
5.70385 7.29812 0
7.41377 5.58961 0
2.58623 4.41039 0
7.70252 8.93385 0
2.29748 1.06615 0
9.00093 7.71831 0
0.999071 2.28169 0
5.50334 8.07265 0
4.49666 1.92735 0
8.08566 5.46457 0
1.91434 4.53543 0
2.89606 6.31454 0
7.10394 3.68546 0
7.37319 7.39166 0
2.62681 2.60834 0
8.20757 2.43522 0
1.79243 7.56478 0
1.77115 8.38116 0
8.22885 1.61884 0
4.90875 7.45054 0
5.09125 2.54946 0
9.58664 6.99022 0
0.41336 3.00978 0
6.99022 9.58664 0
3.00978 0.41336 0
0.811613 9.04634 0
9.18839 0.953662 0
8.00604 7.46633 0
1.99396 2.53367 0
8.42687 0.493252 0
1.57313 9.50675 0
7.22885 3.02053 0
2.77115 6.97947 0
7.60855 1.76714 0
2.39145 8.23286 0
8.43028 1.24649 0
1.56972 8.75351 0
7.50268 8.10923 0
2.49732 1.89077 0
6.47949 6.86719 0
3.52051 3.13281 0
8.0984 3.32549 0
1.9016 6.67451 0
7.47191 2.18216 0
2.52809 7.81784 0
4.38425 9.57432 0
5.61575 0.425684 0
9.57432 4.38425 0
0.425684 5.61575 0
8.06359 4.12706 0
1.93641 5.87294 0
0.413837 3.74683 0
9.58616 6.25317 0
3.74683 0.413837 0
6.25317 9.58616 0
3.39592 9.67652 0
6.60408 0.323483 0
9.67572 3.39745 0
0.324279 6.60255 0
3.24517 8.24425 0
6.75483 1.75575 0
7.72181 3.05437 0
2.27819 6.94563 0
7.74548 1.06961 0
2.25452 8.93039 0
3.73953 1.98812 0
6.26047 8.01188 0
7.18548 6.96515 0
2.81452 3.03485 0
5.08936 8.14172 0
4.91064 1.85828 0
8.14561 5.08322 0
1.85439 4.91678 0
0.437395 8.27884 0
9.56261 1.72116 0
1.10614 8.21216 0
8.89386 1.78784 0
1.06779 7.75143 0
8.93221 2.24857 0
8.50832 2.81043 0
1.49168 7.18957 0
7.24666 4.38917 0
2.75334 5.61083 0
8.0292 0.415323 0
1.9708 9.58468 0
8.52253 8.16047 0
1.47747 1.83953 0
0.310834 4.54741 0
9.68917 5.45259 0
4.54741 0.310834 0
5.45259 9.68917 0
8.10114 8.57116 0
1.89886 1.42884 0
3.0202 9.03922 0
6.9798 0.96078 0
9.05579 3.0229 0
0.944208 6.9771 0
4.01033 7.10323 0
5.98967 2.89677 0
3.04279 7.81425 0
6.95721 2.18575 0
5.29082 7.34758 0
4.70918 2.65242 0
2.81851 8.52878 0
7.18149 1.47122 0
4.66946 1.16459 0
5.33054 8.83541 0
8.83548 5.33123 0
1.16452 4.66877 0
4.25326 0.904183 0
5.74674 9.09582 0
0.904081 4.25222 0
9.09592 5.74778 0
7.36604 5.1714 0
2.63396 4.8286 0
6.96015 6.34339 0
3.03985 3.65661 0
7.80045 6.76536 0
2.19955 3.23464 0
3.47472 7.43734 0
6.52528 2.56266 0
7.78689 2.4244 0
2.21311 7.5756 0
8.17402 7.09953 0
1.82598 2.90047 0
8.6678 4.58072 0
1.3322 5.41928 0
4.57909 8.674 0
5.42091 1.326 0
5.54095 7.65986 0
4.45905 2.34014 0
3.59836 8.71632 0
6.40164 1.28368 0
8.71418 3.59026 0
1.28582 6.40974 0
3.22189 6.47621 0
6.77811 3.52379 0
7.11246 8.23452 0
2.88754 1.76548 0
4.7744 7.89754 0
5.2256 2.10246 0
7.92674 4.80632 0
2.07326 5.19368 0
9.14641 6.89018 0
0.853588 3.10982 0
6.89018 9.14641 0
3.10982 0.853588 0
0.367997 7.91306 0
9.632 2.08694 0
4.21641 1.66095 0
5.78359 8.33905 0
1.75604 4.17304 0
8.24396 5.82696 0
6.25078 7.61379 0
3.74922 2.38621 0
2.61222 9.65614 0
7.38778 0.34386 0
7.5518 1.37968 0
2.4482 8.62032 0
8.61591 2.43519 0
1.38409 7.56481 0
8.18833 7.83925 0
1.81167 2.16075 0
6.4847 8.3885 0
3.5153 1.6115 0
8.47401 6.48466 0
1.52599 3.51534 0
8.79758 7.40771 0
1.20242 2.59229 0
7.41806 8.77193 0
2.58194 1.22807 0
2.77809 7.55781 0
7.22191 2.44219 0
6.53607 3.26052 0
3.46393 6.73948 0
3.78828 9.70251 0
6.21172 0.297491 0
9.70238 3.78853 0
0.297624 6.21147 0
8.20072 1.99164 0
1.79928 8.00836 0
0.289016 3.4 0
9.71098 6.6 0
3.4 0.289016 0
6.6 9.71098 0
0.362788 4.95501 0
9.63721 5.04499 0
4.95501 0.362788 0
5.04499 9.63721 0
3.93241 2.98113 0
6.06759 7.01887 0
4.15094 7.68836 0
5.84906 2.31164 0
2.90906 5.96503 0
7.09094 4.03497 0
7.84424 8.11471 0
2.15576 1.88529 0
7.43895 0.766523 0
2.56105 9.23348 0
0.87364 3.60175 0
9.12636 6.39825 0
3.60175 0.87364 0
6.39825 9.12636 0
7.55183 6.32274 0
2.44817 3.67726 0
9.22469 2.61278 0
0.77531 7.38722 0
7.63864 4.30027 0
2.36136 5.69973 0
6.61046 7.33886 0
3.38954 2.66114 0
6.9194 7.6051 0
3.0806 2.3949 0
9.30669 7.81719 0
0.693314 2.18281 0
7.81117 9.2924 0
2.18883 0.707602 0
6.85835 7.9423 0
3.14165 2.0577 0
7.97668 1.7738 0
2.02332 8.2262 0
3.20941 7.11695 0
6.79059 2.88305 0
9.68187 2.68607 0
0.318127 7.31393 0
9.04223 0.63002 0
0.95777 9.36998 0
7.73947 5.51792 0
2.26053 4.48208 0
7.53654 3.68024 0
2.46346 6.31976 0
8.50029 6.85625 0
1.49971 3.14375 0
6.86327 8.53671 0
3.13673 1.46329 0
8.09882 6.12917 0
1.90118 3.87083 0
1.16987 8.82735 0
8.83013 1.17265 0
6.24318 8.72358 0
3.75682 1.27642 0
1.26145 3.74942 0
8.73855 6.25058 0
8.36249 3.11084 0
1.63751 6.88916 0
8.81727 0.481505 0
1.18273 9.5185 0
3.00643 9.71745 0
6.99357 0.282546 0
7.15072 5.80599 0
2.84928 4.19401 0
0.307652 6.96933 0
9.69235 3.03067 0
3.93511 8.56388 0
6.06489 1.43612 0
8.47897 3.92887 0
1.52103 6.07113 0
4.19025 8.77854 0
5.80975 1.22146 0
8.75951 4.1897 0
1.24049 5.8103 0
7.68781 7.50385 0
2.31219 2.49615 0
0.469261 8.8182 0
9.53074 1.1818 0
8.87842 8.01564 0
1.12158 1.98436 0
7.1052 3.35861 0
2.8948 6.64139 0
4.09775 9.09703 0
5.90225 0.902971 0
9.09541 4.0977 0
0.904589 5.9023 0
8.01607 8.88078 0
1.98393 1.11922 0
3.70707 9.0873 0
6.29293 0.912697 0
9.08677 3.7059 0
0.913234 6.2941 0
7.78226 3.37053 0
[...]
POINT_DATA 743
SCALARS GMDS_ID int 1
LOOKUP_TABLE default
0 1 2 3 4 5 6 7 8 9 10 11 12 13 14 15 16 17 18 19 20 21 22 23 24 25 26 27 28 29 30 31 32 33 34 35 36 37 38 39 40 41 42 43 44 45 46 47 48 49 50 51 52 53 54 55 56 57 58 59 60 61 62 63 64 65 66 67 68 69 70 71 72 73 74 75 76 77 78 79 80 81 82 83 84 85 86 87 88 89 90 91 92 93 94 95 96 97 98 99 100 101 102 103 104 105 106 107 108 109 110 111 112 113 114 115 116 117 118 119 120 121 122 123 124 125 126 127 128 129 130 131 132 133 134 135 136 137 138 139 140 141 142 143 144 145 146 147 148 149 150 151 152 153 154 155 156 157 158 159 160 161 162 163 164 165 166 167 168 169 170 171 172 173 174 175 176 177 178 179 180 181 182 183 184 185 186 187 188 189 190 191 192 193 194 195 196 197 198 199 200 201 202 203 204 205 206 207 208 209 210 211 212 213 214 215 216 217 218 219 220 221 222 223 224 225 226 227 228 229 230 231 232 233 234 235 236 237 238 239 240 241 242 243 244 245 246 247 248 249 250 251 252 253 254 255 256 257 258 259 260 261 262 263 264 265 266 267 268 269 270 271 272 273 274 275 276 277 278 279 280 281 282 283 284 285 286 287 288 289 290 291 292 293 294 295 296 297 298 299 300 301 302 303 304 305 306 307 308 309 310 311 312 313 314 315 316 317 318 319 320 321 322 323 324 325 326 327 328 329 330 331 332 333 334 335 336 337 338 339 340 341 342 343 344 345 346 347 348 349 350 351 352 353 354 355 356 357 358 359 360 361 362 363 364 365 366 367 368 369 370 371 372 373 374 375 376 377 378 379 380 381 382 383 384 385 386 387 388 389 390 391 392 393 394 395 396 397 398 399 400 401 402 403 404 405 406 407 408 409 410 411 412 413 414 415 416 417 418 419 420 421 422 423 424 425 426 427 428 429 430 431 432 433 434 435 436 437 438 439 440 441 442 443 444 445 446 447 448 449 450 451 452 453 454 455 456 457 458 459 460 461 462 463 464 465 466 467 468 469 470 471 472 473 474 475 476 477 478 479 480 481 482 483 484 485 486 487 488 489 490 491 492 493 494 495 496 497 498 499 500 501 502 503 504 505 506 507 508 509 510 511 512 513 514 515 516 517 518 519 520 521 522 523 524 525 526 527 528 529 530 531 532 533 534 535 536 537 538 539 540 541 542 543 544 545 546 547 548 549 550 551 552 553 554 555 556 557 558 559 560 561 562 563 564 565 566 567 568 569 570 571 572 573 574 575 576 577 578 579 580 581 582 583 584 585 586 587 588 589 590 591 592 593 594 595 596 597 598 599 600 601 602 603 604 605 606 607 608 609 610 611 612 613 614 615 616 617 618 619 620 621 622 623 624 625 626 627 628 629 630 631 632 633 634 635 636 637 638 639 640 641 642 643 644 645 646 647 648 649 650 651 652 653 654 655 656 657 658 659 660 661 662 663 664 665 666 667 668 669 670 671 672 673 674 675 676 677 678 679 680 681 682 683 684 685 686 687 688 689 690 691 692 693 694 695 696 697 698 699 700 701 702 703 704 705 706 707 708 709 710 711 712 713 714 715 716 717 718 719 720 721 722 723 724 725 726 727 728 729 730 731 732 733 734 735 736 737 738 739 740 741 742 
SCALARS angle float 1
LOOKUP_TABLE default
0 0 0 0 0 0 0 0.19635 0 6.08684 0 0 6.08684 0 0.19635 -0 0 5.49779 4.71239 3.92699 3.14159 2.35619 1.5708 0.785398 0.785398 1.5708 2.35619 3.14159 3.92699 4.71239 5.49779 5.49779 4.71239 3.92699 3.14159 2.35619 1.5708 0.785398 0.785398 1.5708 2.35619 3.14159 3.92699 4.71239 5.49779 0 0 0 0 0 0 0 0 0 0 0 0 0 0 0 0 0 0 0 0 0 0 0 0 0 0 0 0 0 0 0 0 0 0 0 0 0 0 0 0 0 0 0 0 0 0 0 0 0 0 0 0 0 0 0 0 0.785398 1.5708 2.35619 3.14159 3.92699 4.71239 5.49779 6.28319 0.785398 1.5708 2.35619 3.14159 3.92699 4.71239 5.49779 0.785398 1.5708 2.35619 3.14159 3.92699 4.71239 5.49779 6.28319 0.785398 1.5708 2.35619 3.14159 3.92699 4.71239 5.49779 6.18516 6.18516 6.18177 6.18177 6.21815 6.21815 0.0853711 6.05824 0.0853711 6.05824 6.1836 6.1836 6.27569 6.27569 4.40524 4.40524 0.0440841 0.0440841 6.12117 6.12117 0.109491 0.109491 6.10464 6.10464 5.1885 5.1885 6.25741 6.25741 6.24807 6.24807 0.00844329 0.00844329 6.20941 6.20941 5.63297 5.63297 5.63471 5.63471 0.321773 0.321773 0.142442 0.142442 6.0153 6.0153 5.80096 0.44274 5.80096 0.44274 0.162795 0.162795 0.0286366 0.0286366 6.18635 6.18635 0.477144 0.477144 6.06157 6.06157 5.97584 5.97584 0.0270164 0.0270164 0.564658 0.564658 6.26598 6.26598 6.26349 6.26349 1.90335 1.90335 4.52224 4.52224 6.03335 6.03335 0.065468 0.065468 6.10712 6.10712 5.48415 5.48415 0.00397104 0.00397104 6.17333 6.17333 0.080902 0.080902 4.73014 4.73014 6.10686 6.10686 6.1027 6.1027 0.032904 0.032904 6.03335 6.03335 3.85888 3.85888 5.94515 5.94515 1.22252 1.22252 0.045002 0.045002 6.11766 6.11766 0.0335266 0.0335266 6.19086 6.19086 0.0103402 0.0103402 6.23417 6.23417 5.41937 5.41937 3.21639 3.21639 6.27911 6.27911 6.2569 6.2569 0.0483794 0.0483794 6.11589 6.11589 2.62369 2.62369 1.13236 1.13236 0.070065 0.070065 6.13202 6.13202 0.169718 0.169718 5.55478 5.55478 0.0781091 0.0781091 0.0332653 0.0332653 6.16541 6.16541 6.26387 6.26387 6.27784 6.27784 5.77364 5.77364 0.38465 0.38465 6.25966 6.25966 6.23978 6.23978 5.7642 5.7642 0.510285 0.510285 0.543239 0.543239 1.84582 1.84582 5.8526 5.8526 6.25894 6.25894 6.18564 6.18564 6.0445 6.0445 0.168564 0.168564 0.211287 0.211287 6.19425 6.19425 6.28178 6.28178 6.14037 6.14037 5.1829 5.1829 0.525766 0.525766 1.30467 1.30467 5.03903 5.03903 6.01901 6.01901 0.0936956 0.0936956 4.77015 4.77015 5.7716 5.7716 6.11733 6.11733 6.21583 6.21583 6.26153 6.26153 6.12302 6.12302 0.142548 0.142548 3.2392 3.2392 5.43944 5.43944 0.658458 0.658458 5.79537 5.79537 6.26984 6.26984 0.0217995 0.0217995 0.63226 0.63226 4.11712 4.11712 5.99143 5.99143 6.23215 6.23215 0.0017212 0.0017212 6.25947 6.25947 5.98986 5.98986 6.24617 6.24617 0.0175086 0.0175086 0.0116702 0.0116702 6.24489 6.24489 0.0768242 0.0768242 5.94419 5.94419 0.0612009 0.0612009 5.85585 5.85585 6.12562 6.12562 6.16885 6.16885 6.2586 6.2586 5.67776 5.67776 6.00387 6.00387 6.07958 6.07958 6.10115 6.10115 5.61208 5.61208 0.164158 0.164158 3.66661 3.66661 6.27293 6.27293 6.27806 6.27806 2.67123 2.67123 0.0385129 0.0385129 6.15732 6.15732 1.17748 1.17748 0.0736017 0.0736017 5.81866 5.81866 0.0389658 0.0389658 6.23083 6.23083 6.26371 6.26371 6.25547 6.25547 6.26071 6.26071 0.14205 0.14205 1.86173 1.86173 0.0866007 0.0866007 0.493955 0.493955 6.14028 6.14028 5.94608 5.94608 6.19243 6.19243 7.25869e-05 7.25869e-05 5.76541 5.76541 0.0488957 0.0488957 6.12808 6.12808 3.45548 3.45548 0.114427 0.114427 6.28101 6.28101 6.15277 6.15277 6.05365 6.05365 0.187427 0.187427 6.05592 6.05592 6.08829 6.08829 0.0845488 0.0845488 5.31748 5.31748 0.0391584 0.0391584 0.0287859 0.0287859 6.10546 6.10546 3.88474 3.88474 6.17119 6.17119 6.2213 6.2213 5.48021 5.48021 0.784245 0.784245 6.24071 6.24071 3.08046 3.08046 0.00793228 0.00793228 6.25134 6.25134 6.16268 6.16268 6.24212 6.24212 0.0309102 0.0309102 6.27026 6.27026 6.27824 6.27824 4.46859 4.46859 0.309543 0.309543 4.97153 4.97153 2.96288 2.96288 0.0556913 0.0556913 6.19979 6.19979 0.0364436 0.0364436 0.558932 0.558932 6.13917 6.13917 5.82006 5.82006 4.90446 4.90446 5.54968 5.54968 5.22943 5.22943 1.0708 1.0708 5.94742 5.94742 6.22613 6.22613 0.475934 0.475934 6.21721 6.21721 2.31794 2.31794 0.250614 0.250614 5.57214 5.57214 6.0534 6.0534 0.108843 0.108843 0.135523 0.135523 6.19164 6.19164 6.23911 6.23911 6.23587 6.23587 6.07269 6.07269 2.07945 2.07945 0.0155873 0.0155873 1.12636 1.12636 6.23264 6.23264 0.0564154 0.0564154 6.09633 6.09633 0.0263975 0.0263975 6.16738 6.16738 5.70065 5.70065 4.90642 4.90642 4.15586 4.15586 4.88559 4.88559 0.0165333 0.0165333 6.20536 6.20536 2.16195 2.16195 0.0271349 0.0271349 6.18624 6.18624 5.86194 5.86194 5.82747 5.82747 0.298986 0.298986 0.00843913 0.00843913 6.26701 6.26701 6.25511 6.25511 0.276083 0.276083 0.0033704 0.0033704 6.26346 6.26346 6.27046 6.27046 6.28199 6.28199 5.75553 0.522331 5.75553 0.522331 0.0588404 0.0588404 6.10563 6.10563 6.23873 6.23271 6.23873 6.23271 6.27753 6.27753 6.23368 6.23368 5.93554 5.93554 4.40727 4.40727 5.02086 5.02086 5.87361 5.87361 0.618934 0.618934 0.287357 0.287357 5.9217 5.9217 6.09409 0.181596 6.09409 0.181596 6.24432 6.24432 0.00298259 0.00298259 0.208873 0.208873 0.0252217 6.20345 6.20345 0.0252217 0.0487477 0.0487477 1.4468 1.4468 0.0818263 0.0818263 5.79481 5.79481 1.23985 1.23985 2.37076 2.37076 6.08304 6.08304 0.700947 0.700947 0.0497259 0.0497259 5.95587 5.95587 0.143277 0.143277 5.56908 0.727736 0.727736 5.56908 6.28252 6.28252 6.27526 6.27526 6.07717 6.07717 3.10632 3.10632 5.04906 5.04906 0.0983026 0.0983026 5.81546 5.81546 0.748175 0.748175 5.28475 5.28475 5.97254 5.97254 6.07161 6.07161 0.018305 0.018305 6.21827 6.21827 6.12507 6.12507 0.0949609 0.0949609 0.0393064 0.0393064 6.151 6.151 5.95443 5.95443 6.12498 6.12498 0.0647859 0.0647859 0.00461857 6.23515 0.00461857 6.23515 6.15509 6.15509 0.0213754 0.0213754 0.480873 0.480873 6.17105 6.17105 5.91606 5.91606 0.346812 0.346812 0.186503 0.186503 
VECTORS cross_X float
1 0 0 1 0 0 1 0 0 1 0 0 1 0 0 1 0 0 1 0 0 0.998795 0.0490677 0 1 0 0 0.0490677 0.998795 0 1 0 0 1 0 0 0.0490677 0.998795 0 1 0 0 0.998795 0.0490677 0 1 0 0 1 0 0 0.19509 0.980785 0 0.382683 0.92388 0 0.55557 0.83147 0 0.707107 0.707107 0 0.83147 0.55557 0 0.92388 0.382683 0 0.980785 0.19509 0 0.980785 0.19509 0 0.92388 0.382683 0 0.83147 0.55557 0 0.707107 0.707107 0 0.55557 0.83147 0 0.382683 0.92388 0 0.19509 0.980785 0 0.19509 0.980785 0 0.382683 0.92388 0 0.55557 0.83147 0 0.707107 0.707107 0 0.83147 0.55557 0 0.92388 0.382683 0 0.980785 0.19509 0 0.980785 0.19509 0 0.92388 0.382683 0 0.83147 0.55557 0 0.707107 0.707107 0 0.55557 0.83147 0 0.382683 0.92388 0 0.19509 0.980785 0 1 0 0 1 0 0 1 0 0 1 0 0 1 0 0 1 0 0 1 0 0 1 0 0 1 0 0 1 0 0 1 0 0 1 0 0 1 0 0 1 0 0 1 0 0 1 0 0 1 0 0 1 0 0 1 0 0 1 0 0 1 0 0 1 0 0 1 0 0 1 0 0 1 0 0 1 0 0 1 0 0 1 0 0 1 0 0 1 0 0 1 0 0 1 0 0 1 0 0 1 0 0 1 0 0 1 0 0 1 0 0 1 0 0 1 0 0 1 0 0 1 0 0 1 0 0 1 0 0 1 0 0 1 0 0 1 0 0 1 0 0 1 0 0 1 0 0 1 0 0 1 0 0 1 0 0 1 0 0 1 0 0 1 0 0 1 0 0 0.980785 0.19509 0 0.92388 0.382683 0 0.83147 0.55557 0 0.707107 0.707107 0 0.55557 0.83147 0 0.382683 0.92388 0 0.19509 0.980785 0 4.14985e-12 1 0 0.980785 0.19509 0 0.92388 0.382683 0 0.83147 0.55557 0 0.707107 0.707107 0 0.55557 0.83147 0 0.382683 0.92388 0 0.19509 0.980785 0 0.980785 0.19509 0 0.92388 0.382683 0 0.83147 0.55557 0 0.707107 0.707107 0 0.55557 0.83147 0 0.382683 0.92388 0 0.19509 0.980785 0 4.13142e-12 1 0 0.980785 0.19509 0 0.92388 0.382683 0 0.83147 0.55557 0 0.707107 0.707107 0 0.55557 0.83147 0 0.382683 0.92388 0 0.19509 0.980785 0 0.0245028 0.9997 0 0.0245028 0.9997 0 0.0253503 0.999679 0 0.0253503 0.999679 0 0.0162583 0.999868 0 0.0162583 0.999868 0 0.999772 0.0213412 0 0.0562068 0.998419 0 0.999772 0.0213412 0 0.0562068 0.998419 0 0.0248949 0.99969 0 0.0248949 0.99969 0 0.00187355 0.999998 0 0.00187355 0.999998 0 0.452427 0.891801 0 0.452427 0.891801 0 0.999939 0.0110208 0 0.999939 0.0110208 0 0.0404929 0.99918 0 0.0404929 0.99918 0 0.999625 0.0273694 0 0.999625 0.0273694 0 0.0446223 0.999004 0 0.0446223 0.999004 0 0.270269 0.962785 0 0.270269 0.962785 0 0.00644347 0.999979 0 0.00644347 0.999979 0 0.00877992 0.999961 0 0.00877992 0.999961 0 0.999998 0.00211082 0 0.999998 0.00211082 0 0.0184426 0.99983 0 0.0184426 0.99983 0 0.16184 0.986817 0 0.16184 0.986817 0 0.161411 0.986887 0 0.161411 0.986887 0 0.996766 0.0803565 0 0.996766 0.0803565 0 0.999366 0.0356029 0 0.999366 0.0356029 0 0.0669221 0.997758 0 0.0669221 0.997758 0 0.120265 0.992742 0 0.993881 0.110459 0 0.120265 0.992742 0 0.993881 0.110459 0 0.999172 0.0406876 0 0.999172 0.0406876 0 0.999974 0.00715909 0 0.999974 0.00715909 0 0.0242073 0.999707 0 0.0242073 0.999707 0 0.992894 0.119003 0 0.992894 0.119003 0 0.0553767 0.998466 0 0.0553767 0.998466 0 0.0767595 0.99705 0 0.0767595 0.99705 0 0.999977 0.00675405 0 0.999977 0.00675405 0 0.990053 0.140696 0 0.990053 0.140696 0 0.00430166 0.999991 0 0.00430166 0.999991 0 0.00492304 0.999988 0 0.00492304 0.999988 0 0.888909 0.458083 0 0.888909 0.458083 0 0.426154 0.90465 0 0.426154 0.90465 0 0.0624183 0.99805 0 0.0624183 0.99805 0 0.999866 0.0163663 0 0.999866 0.0163663 0 0.0440032 0.999031 0 0.0440032 0.999031 0 0.198433 0.980114 0 0.198433 0.980114 0 1 0.00099276 0 1 0.00099276 0 0.0274612 0.999623 0 0.0274612 0.999623 0 0.999795 0.0202241 0 0.999795 0.0202241 0 0.378579 0.925569 0 0.378579 0.925569 0 0.0440683 0.999029 0 0.0440683 0.999029 0 0.0451052 0.998982 0 0.0451052 0.998982 0 0.999966 0.00822592 0 0.999966 0.00822592 0 0.062419 0.99805 0 0.062419 0.99805 0 0.569646 0.82189 0 0.569646 0.82189 0 0.0844095 0.996431 0 0.0844095 0.996431 0 0.953657 0.300894 0 0.953657 0.300894 0 0.999937 0.0112503 0 0.999937 0.0112503 0 0.041369 0.999144 0 0.041369 0.999144 0 0.999965 0.00838154 0 0.999965 0.00838154 0 0.023079 0.999734 0 0.023079 0.999734 0 0.999997 0.00258504 0 0.999997 0.00258504 0 0.0122524 0.999925 0 0.0122524 0.999925 0 0.21428 0.976772 0 0.21428 0.976772 0 0.693761 0.720206 0 0.693761 0.720206 0 0.00101939 0.999999 0 0.00101939 0.999999 0 0.00657215 0.999978 0 0.00657215 0.999978 0 0.999927 0.0120946 0 0.999927 0.0120946 0 0.0418116 0.999126 0 0.0418116 0.999126 0 0.792486 0.60989 0 0.792486 0.60989 0 0.960197 0.279324 0 0.960197 0.279324 0 0.999847 0.0175153 0 0.999847 0.0175153 0 0.0377829 0.999286 0 0.0377829 0.999286 0 0.9991 0.0424168 0 0.9991 0.0424168 0 0.181097 0.983465 0 0.181097 0.983465 0 0.999809 0.019526 0 0.999809 0.019526 0 0.999965 0.00831622 0 0.999965 0.00831622 0 0.0294395 0.999567 0 0.0294395 0.999567 0 0.00482949 0.999988 0 0.00482949 0.999988 0 0.00133752 0.999999 0 0.00133752 0.999999 0 0.127042 0.991897 0 0.127042 0.991897 0 0.99538 0.0960143 0 0.99538 0.0960143 0 0.00588209 0.999983 0 0.00588209 0.999983 0 0.0108506 0.999941 0 0.0108506 0.999941 0 0.129383 0.991595 0 0.129383 0.991595 0 0.991874 0.127226 0 0.991874 0.127226 0 0.990792 0.135393 0 0.990792 0.135393 0 0.895406 0.445251 0 0.895406 0.445251 0 0.107438 0.994212 0 0.107438 0.994212 0 0.00606099 0.999982 0 0.00606099 0.999982 0 0.0243837 0.999703 0 0.0243837 0.999703 0 0.0596356 0.99822 0 0.0596356 0.99822 0 0.999112 0.0421286 0 0.999112 0.0421286 0 0.998605 0.0527972 0 0.998605 0.0527972 0 0.0222331 0.999753 0 0.0222331 0.999753 0 0.00035048 1 0 0.00035048 1 0 0.0356973 0.999363 0 0.0356973 0.999363 0 0.271615 0.962406 0 0.271615 0.962406 0 0.991374 0.131063 0 0.991374 0.131063 0 0.947277 0.320415 0 0.947277 0.320415 0 0.306047 0.952016 0 0.306047 0.952016 0 0.0659955 0.99782 0 0.0659955 0.99782 0 0.999726 0.0234217 0 0.999726 0.0234217 0 0.369302 0.929309 0 0.369302 0.929309 0 0.127548 0.991832 0 0.127548 0.991832 0 0.0414516 0.999141 0 0.0414516 0.999141 0 0.0168391 0.999858 0 0.0168391 0.999858 0 0.00541494 0.999985 0 0.00541494 0.999985 0 0.0400311 0.999198 0 0.0400311 0.999198 0 0.999365 0.0356295 0 0.999365 0.0356295 0 0.689643 0.724149 0 0.689643 0.724149 0 0.209377 0.977835 0 0.209377 0.977835 0 0.986482 0.163872 0 0.986482 0.163872 0 0.121651 0.992573 0 0.121651 0.992573 0 0.00333559 0.999994 0 0.00333559 0.999994 0 0.999985 0.00544984 0 0.999985 0.00544984 0 0.987534 0.157408 0 0.987534 0.157408 0 0.515437 0.856928 0 0.515437 0.856928 0 0.0728745 0.997341 0 0.0728745 0.997341 0 0.0127596 0.999919 0 0.0127596 0.999919 0 1 0.0004303 0 1 0.0004303 0 0.00592937 0.999982 0 0.00592937 0.999982 0 0.0732659 0.997312 0 0.0732659 0.997312 0 0.00925279 0.999957 0 0.00925279 0.999957 0 0.99999 0.00437715 0 0.99999 0.00437715 0 0.999996 0.00291754 0 0.999996 0.00291754 0 0.00957476 0.999954 0 0.00957476 0.999954 0 0.999816 0.0192049 0 0.999816 0.0192049 0 0.0846478 0.996411 0 0.0846478 0.996411 0 0.999883 0.0152996 0 0.999883 0.0152996 0 0.10663 0.994299 0 0.10663 0.994299 0 0.0393819 0.999224 0 0.0393819 0.999224 0 0.0285793 0.999592 0 0.0285793 0.999592 0 0.00614542 0.999981 0 0.00614542 0.999981 0 0.15078 0.988567 0 0.15078 0.988567 0 0.0697722 0.997563 0 0.0697722 0.997563 0 0.0508781 0.998705 0 0.0508781 0.998705 0 0.0454939 0.998965 0 0.0454939 0.998965 0 0.166991 0.985958 0 0.166991 0.985958 0 0.999158 0.041028 0 0.999158 0.041028 0 0.60848 0.793569 0 0.60848 0.793569 0 0.00256292 0.999997 0 0.00256292 0.999997 0 0.00128089 0.999999 0 0.00128089 0.999999 0 0.785181 0.619267 0 0.785181 0.619267 0 0.999954 0.00962808 0 0.999954 0.00962808 0 0.0314604 0.999505 0 0.0314604 0.999505 0 0.956985 0.290137 0 0.956985 0.290137 0 0.999831 0.0183994 0 0.999831 0.0183994 0 0.115871 0.993264 0 0.115871 0.993264 0 0.999953 0.00974129 0 0.999953 0.00974129 0 0.0130892 0.999914 0 0.0130892 0.999914 0 0.00486938 0.999988 0 0.00486938 0.999988 0 0.00692986 0.999976 0 0.00692986 0.999976 0 0.00561974 0.999984 0 0.00561974 0.999984 0 0.999369 0.0355051 0 0.999369 0.0355051 0 0.893627 0.44881 0 0.893627 0.44881 0 0.999766 0.0216485 0 0.999766 0.0216485 0 0.992385 0.123175 0 0.992385 0.123175 0 0.0357191 0.999362 0 0.0357191 0.999362 0 0.0841755 0.996451 0 0.0841755 0.996451 0 0.0226859 0.999743 0 0.0226859 0.999743 0 1 1.81467e-05 0 1 1.81467e-05 0 0.129082 0.991634 0 0.129082 0.991634 0 0.999925 0.0122236 0 0.999925 0.0122236 0 0.0387661 0.999248 0 0.0387661 0.999248 0 0.6495 0.760362 0 0.6495 0.760362 0 0.999591 0.0286029 0 0.999591 0.0286029 0 0.000544171 1 0 0.000544171 1 0 0.0325984 0.999469 0 0.0325984 0.999469 0 0.0573534 0.998354 0 0.0573534 0.998354 0 0.998902 0.0468395 0 0.998902 0.0468395 0 0.0567851 0.998386 0 0.0567851 0.998386 0 0.0487053 0.998813 0 0.0487053 0.998813 0 0.999777 0.0211356 0 0.999777 0.0211356 0 0.239089 0.970998 0 0.239089 0.970998 0 0.999952 0.00978944 0 0.999952 0.00978944 0 0.999974 0.0071964 0 0.999974 0.0071964 0 0.0444176 0.999013 0 0.0444176 0.999013 0 0.564321 0.825555 0 0.564321 0.825555 0 0.0279952 0.999608 0 0.0279952 0.999608 0 0.0154707 0.99988 0 0.0154707 0.99988 0 0.199399 0.979918 0 0.199399 0.979918 0 0.980841 0.194808 0 0.980841 0.194808 0 0.0106183 0.999944 0 0.0106183 0.999944 0 0.717831 0.696217 0 0.717831 0.696217 0 0.999998 0.00198307 0 0.999998 0.00198307 0 0.00796052 0.999968 0 0.00796052 0.999968 0 0.0301217 0.999546 0 0.0301217 0.999546 0 0.0102667 0.999947 0 0.0102667 0.999947 0 0.99997 0.00772748 0 0.99997 0.00772748 0 0.00323159 0.999995 0 0.00323159 0.999995 0 0.00123582 0.999999 0 0.00123582 0.999999 0 0.438247 0.898854 0 0.438247 0.898854 0 0.997007 0.0773086 0 0.997007 0.0773086 0 0.322069 0.946716 0 0.322069 0.946716 0 0.737983 0.67482 0 0.737983 0.67482 0 0.999903 0.0139224 0 0.999903 0.0139224 0 0.0208464 0.999783 0 0.0208464 0.999783 0 0.999958 0.00911077 0 0.999958 0.00911077 0 0.990253 0.139279 0 0.990253 0.139279 0 0.0359972 0.999352 0 0.0359972 0.999352 0 0.115524 0.993305 0 0.115524 0.993305 0 0.337896 0.941183 0 0.337896 0.941183 0 0.182349 0.983234 0 0.182349 0.983234 0 0.260401 0.965501 0 0.260401 0.965501 0 0.964382 0.264514 0 0.964382 0.264514 0 0.0838429 0.996479 0 0.0838429 0.996479 0 0.0142639 0.999898 0 0.0142639 0.999898 0 0.99293 0.118703 0 0.99293 0.118703 0 0.0164935 0.999864 0 0.0164935 0.999864 0 0.836745 0.547592 0 0.836745 0.547592 0 0.998038 0.0626125 0 0.998038 0.0626125 0 0.176828 0.984242 0 0.176828 0.984242 0 0.0574158 0.99835 0 0.0574158 0.99835 0 0.99963 0.0272075 0 0.99963 0.0272075 0 0.999426 0.0338742 0 0.999426 0.0338742 0 0.0228835 0.999738 0 0.0228835 0.999738 0 0.0110176 0.999939 0 0.0110176 0.999939 0 0.0118284 0.99993 0 0.0118284 0.99993 0 0.0526006 0.998616 0 0.0526006 0.998616 0 0.867887 0.496761 0 0.867887 0.496761 0 0.999992 0.00389682 0 0.999992 0.00389682 0 0.960615 0.277882 0 0.960615 0.277882 0 0.0126358 0.99992 0 0.0126358 0.99992 0 0.999901 0.0141034 0 0.999901 0.0141034 0 0.0466975 0.998909 0 0.0466975 0.998909 0 0.999978 0.00659933 0 0.999978 0.00659933 0 0.0289474 0.999581 0 0.0289474 0.999581 0 0.145119 0.989414 0 0.145119 0.989414 0 0.337435 0.941349 0 0.337435 0.941349 0 0.507112 0.86188 0 0.507112 0.86188 0 0.342334 0.939578 0 0.342334 0.939578 0 0.999991 0.0041333 0 0.999991 0.0041333 0 0.019455 0.999811 0 0.019455 0.999811 0 0.857458 0.514554 0 0.857458 0.514554 0 0.999977 0.00678368 0 0.999977 0.00678368 0 0.0242338 0.999706 0 0.0242338 0.999706 0 0.105116 0.99446 0 0.105116 0.99446 0 0.113682 0.993517 0 0.113682 0.993517 0 0.997208 0.0746768 0 0.997208 0.0746768 0 