# vtk DataFile Version 3.0
Generated by GMDS VTK Writer

ASCII
DATASET UNSTRUCTURED_GRID
POINTS 361 float
0 0 0
10 0 0
10 10 0
0 10 0
5 5 0
10 8 0
8 10 0
8 0 0
8 2 0
10 2 0
2 0 0
0 2 0
0 8 0
2 8 0
2 10 0
5 7 0
5 3 0
0.0681483 8.51764 0
0.267949 9 0
0.585786 9.41421 0
1 9.73205 0
1.48236 9.93185 0
8.06815 9.48236 0
8.26795 9 0
8.58579 8.58579 0
9 8.26795 0
9.48236 8.06815 0
9.93185 1.48236 0
9.73205 1 0
9.41421 0.585786 0
9 0.267949 0
8.51764 0.0681483 0
1.93185 0.517638 0
1.73205 1 0
1.41421 1.41421 0
1 1.73205 0
0.517638 1.93185 0
2.6 10 0
3.2 10 0
3.8 10 0
4.4 10 0
5 10 0
5.6 10 0
6.2 10 0
6.8 10 0
7.4 10 0
10 7.4 0
10 6.8 0
10 6.2 0
10 5.6 0
10 5 0
10 4.4 0
10 3.8 0
10 3.2 0
10 2.6 0
7.4 0 0
6.8 0 0
6.2 0 0
5.6 0 0
5 0 0
4.4 0 0
3.8 0 0
3.2 0 0
2.6 0 0
0 2.6 0
0 3.2 0
0 3.8 0
0 4.4 0
0 5 0
0 5.6 0
0 6.2 0
0 6.8 0
0 7.4 0
4.43653 6.91899 0
3.91872 6.68251 0
3.4885 6.30972 0
3.18074 5.83083 0
3.02036 5.28463 0
3.02036 4.71537 0
3.18074 4.16917 0
3.4885 3.69028 0
3.91872 3.31749 0
4.43653 3.08101 0
5.56347 3.08101 0
6.08128 3.31749 0
6.5115 3.69028 0
6.81926 4.16917 0
6.97964 4.71537 0
6.97964 5.28463 0
6.81926 5.83083 0
6.5115 6.30972 0
6.08128 6.68251 0
5.56347 6.91899 0
2.10472 7.91449 0
7.89528 2.08551 0
3.29448 1.71613 0
6.70552 8.28387 0
1.69004 3.2708 0
8.30996 6.7292 0
3.67987 8.39728 0
6.32013 1.60272 0
8.30596 3.70631 0
1.69404 6.29369 0
8.65602 5.21762 0
1.34398 4.78238 0
4.7832 1.38993 0
5.2168 8.61007 0
2.15438 2.24223 0
7.84562 7.75777 0
1.2095 8.62686 0
8.7905 1.37314 0
7.88049 1.07064 0
2.11951 8.92936 0
8.87907 2.68276 0
1.12093 7.31724 0
3.08028 7.40144 0
6.91972 2.59856 0
3.21895 2.74367 0
6.78105 7.25633 0
7.39877 3.45182 0
2.60123 6.54818 0
0.951695 3.93674 0
9.04831 6.06326 0
7.79063 5.87483 0
2.20937 4.12517 0
3.93319 0.950664 0
6.06681 9.04934 0
7.27331 9.10719 0
2.72669 0.892809 0
1.03804 2.66201 0
8.96196 7.33799 0
4.33581 9.06775 0
5.66419 0.932253 0
9.03107 4.35324 0
0.968931 5.64676 0
4.42017 7.78362 0
5.57983 2.21638 0
4.12635 2.18031 0
5.87365 7.81969 0
7.82738 4.47892 0
2.17262 5.52108 0
3.09468 9.05822 0
6.90532 0.941777 0
7.35816 6.64024 0
2.64184 3.35976 0
7.16771 1.67439 0
2.83229 8.32561 0
8.10942 2.87945 0
1.89058 7.12055 0
9.1897 3.44465 0
0.810301 6.55535 0
0.692677 8.03845 0
9.30732 1.96155 0
8.36743 0.764061 0
1.63257 9.23594 0
3.86112 7.44108 0
6.13888 2.55892 0
0.852337 4.59783 0
9.14766 5.40217 0
4.59604 0.858358 0
5.40396 9.14164 0
1.40405 2.20638 0
8.59595 7.79362 0
2.08988 1.57022 0
7.91012 8.42978 0
0.789148 3.27205 0
9.21085 6.72795 0
3.27541 0.779117 0
6.72459 9.22088 0
7.68672 5.16533 0
2.31328 4.83467 0
5.03554 7.66866 0
4.96446 2.33134 0
8.5457 2.16159 0
1.4543 7.83841 0
3.78384 9.32584 0
6.21616 0.674164 0
8.24586 1.5982 0
1.75414 8.4018 0
2.35339 7.36734 0
7.64661 2.63266 0
2.65002 1.77454 0
7.34998 8.22546 0
7.52494 3.98089 0
2.47506 6.01911 0
6.14209 7.34676 0
3.85791 2.65324 0
2.15209 3.004 0
7.84791 6.996 0
1.61848 3.90976 0
8.38152 6.09024 0
0.641498 8.52877 0
9.3585 1.47123 0
6.8922 3.20885 0
3.1078 6.79115 0
3.9057 1.59825 0
6.0943 8.40175 0
1.15075 9.19006 0
8.84925 0.809944 0
9.44847 2.89263 0
0.55153 7.10737 0
4.28298 8.46427 0
5.71702 1.53573 0
8.44548 4.2563 0
1.55452 5.7437 0
7.26231 0.59781 0
2.73769 9.40219 0
3.29121 8.01565 0
6.70879 1.98435 0
8.36683 7.28104 0
1.63317 2.71896 0
9.5033 7.58356 0
0.496702 2.41644 0
2.39741 0.451443 0
7.60259 9.54856 0
7.8638 0.465261 0
2.1362 9.53474 0
6.87742 6.73651 0
3.12258 3.26349 0
9.45351 4.00574 0
0.546494 5.99426 0
8.58653 3.21066 0
1.41347 6.78934 0
5.19997 0.520414 0
4.80003 9.47959 0
0.534373 5.23341 0
9.46563 4.76659 0
3.38263 2.28019 0
6.61737 7.71981 0
7.35563 6.11244 0
2.64437 3.88756 0
2.86031 2.27913 0
7.13969 7.72087 0
2.69275 7.87011 0
7.30725 2.12989 0
1.24656 3.48187 0
8.75344 6.51813 0
3.48242 1.24667 0
6.51758 8.75333 0
8.83538 3.82948 0
1.16462 6.17052 0
7.88042 6.38759 0
2.11958 3.61241 0
0.42352 4.17793 0
9.57648 5.82207 0
4.17708 0.424281 0
5.82292 9.57572 0
7.85252 3.70575 0
2.14748 6.29425 0
3.87525 7.95089 0
6.12475 2.04911 0
7.05603 3.80968 0
2.94397 6.19032 0
4.6467 7.36594 0
5.3533 2.63406 0
4.82937 8.86893 0
5.17063 1.13107 0
8.86804 4.82223 0
1.13196 5.17777 0
3.9187 8.83291 0
6.0813 1.16709 0
7.35666 5.61885 0
2.64334 4.38115 0
7.63878 1.63803 0
2.36122 8.36197 0
8.13347 2.50568 0
1.86653 7.49432 0
2.69169 2.81538 0
7.30831 7.18462 0
2.72982 8.78083 0
7.27018 1.21917 0
3.21759 8.598 0
6.78241 1.402 0
0.379407 7.7 0
9.62059 2.3 0
0.907274 2.19035 0
9.09273 7.80965 0
7.77935 9.02031 0
2.22065 0.979689 0
3.5453 7.03874 0
6.4547 2.96126 0
4.46568 2.54377 0
5.53432 7.45623 0
1.31846 4.32683 0
8.68154 5.67317 0
4.33377 1.32693 0
5.66623 8.67307 0
4.79605 8.27823 0
5.20395 1.72177 0
8.26013 4.90182 0
1.73987 5.09818 0
8.19544 5.48241 0
1.80456 4.51759 0
4.23853 9.54544 0
5.76147 0.454559 0
7.43409 4.74507 0
2.56591 5.25493 0
4.54044 1.87033 0
5.45956 8.12967 0
8.72061 6.91886 0
1.27939 3.08114 0
0.366722 8.18471 0
9.63328 1.81529 0
3.35125 9.51646 0
6.64875 0.483541 0
2.97917 1.30922 0
7.02083 8.69078 0
0.416916 2.94643 0
9.58308 7.05357 0
2.97213 0.426609 0
7.02787 9.57339 0
7.28027 2.99038 0
2.71973 7.00962 0
0.434827 3.61283 0
9.56517 6.38717 0
6.36673 9.56371 0
3.63327 0.436288 0
6.46548 6.91404 0
3.53452 3.08596 0
1.59581 8.82668 0
8.40419 1.17332 0
9.64064 3.49183 0
0.359357 6.50817 0
8.319 8.26809 0
1.681 1.73191 0
7.85892 3.2681 0
2.14108 6.7319 0
8.62116 0.45227 0
1.37884 9.54773 0
1.11313 8.1809 0
8.88687 1.8191 0
3.49066 7.60202 0
6.50934 2.39798 0
0.771097 8.95198 0
9.2289 1.04802 0
0.855919 7.66484 0
9.14408 2.33516 0
8.00938 4.04191 0
1.99062 5.95809 0
6.94896 6.32364 0
3.05104 3.67636 0
4.25492 7.25379 0
5.74508 2.74621 0
9.01129 3.06018 0
0.988706 6.93982 0
7.49165 8.6545 0
2.50835 1.3455 0
7.2114 4.34653 0
2.7886 5.65347 0
8.27259 0.359059 0
1.72741 9.64094 0
3.73896 2.03596 0
6.26104 7.96404 0
9.66803 5.30927 0
0.331968 4.69073 0
4.68187 0.3434 0
5.31813 9.6566 0
8.45641 2.71121 0
1.54359 7.28879 0
3.50765 8.95478 0
6.49235 1.04522 0

CELLS 622 2488
3 329 109 178 
3 330 110 177 
3 174 329 178 
3 173 330 177 
3 323 23 24 
3 324 33 34 
3 108 162 209 
3 107 161 210 
3 95 231 227 
3 96 232 228 
3 107 324 161 
3 108 323 162 
3 107 163 324 
3 108 164 323 
3 94 173 177 
3 93 174 178 
3 169 291 289 
3 170 292 290 
3 163 33 324 
3 164 23 323 
3 95 181 231 
3 96 182 232 
3 129 307 165 
3 130 308 166 
3 38 303 206 
3 56 304 205 
3 51 219 226 
3 69 220 225 
3 201 255 287 
3 202 256 288 
3 257 203 289 
3 258 204 290 
3 128 167 309 
3 127 168 310 
3 133 203 257 
3 134 204 258 
3 14 37 216 
3 7 55 215 
3 131 255 201 
3 132 256 202 
3 6 22 214 
3 10 32 213 
3 5 211 26 
3 11 212 36 
3 197 109 333 
3 198 110 334 
3 81 82 186 
3 91 92 185 
3 37 38 206 
3 55 56 205 
3 333 109 191 
3 334 110 192 
3 139 169 289 
3 140 170 290 
3 155 74 279 
3 156 84 280 
3 151 329 335 
3 152 330 336 
3 33 163 278 
3 23 164 277 
3 104 283 157 
3 103 284 158 
3 82 281 186 
3 92 282 185 
3 171 287 298 
3 172 288 297 
3 121 157 283 
3 122 158 284 
3 108 209 188 
3 107 210 187 
3 174 335 329 
3 173 336 330 
3 88 169 295 
3 78 170 296 
3 105 159 285 
3 106 160 286 
3 129 212 307 
3 130 211 308 
3 94 180 265 
3 93 179 266 
3 125 285 159 
3 126 286 160 
3 104 290 292 
3 103 289 291 
3 128 309 213 
3 127 310 214 
3 111 320 153 
3 112 319 154 
3 149 221 239 
3 150 222 240 
3 107 181 163 
3 108 182 164 
3 341 74 155 
3 342 84 156 
3 35 161 324 
3 25 162 323 
3 35 275 161 
3 25 276 162 
3 121 243 157 
3 122 244 158 
3 101 221 325 
3 102 222 326 
3 104 157 258 
3 103 158 257 
3 37 206 216 
3 55 205 215 
3 135 287 171 
3 136 288 172 
3 147 265 180 
3 148 266 179 
3 125 159 245 
3 126 160 246 
3 98 241 188 
3 97 242 187 
3 101 239 221 
3 102 240 222 
3 105 256 159 
3 106 255 160 
3 10 213 63 
3 6 214 45 
3 143 188 241 
3 144 187 242 
3 111 153 215 
3 112 154 216 
3 5 46 211 
3 11 64 212 
3 107 187 267 
3 108 188 268 
3 15 171 282 
3 16 172 281 
3 155 249 135 
3 156 250 136 
3 341 155 135 
3 342 156 136 
3 130 162 276 
3 129 161 275 
3 133 226 219 
3 134 225 220 
3 107 267 231 
3 108 268 232 
3 179 312 326 
3 180 311 325 
3 129 165 300 
3 130 166 299 
3 114 335 174 
3 113 336 173 
3 147 325 221 
3 148 326 222 
3 128 305 167 
3 127 306 168 
3 148 179 326 
3 147 180 325 
3 357 173 265 
3 358 174 266 
3 85 193 280 
3 75 194 279 
3 87 88 295 
3 77 78 296 
3 24 25 323 
3 34 35 324 
3 130 209 162 
3 129 210 161 
3 84 85 280 
3 74 75 279 
3 93 264 233 
3 94 263 234 
3 19 20 197 
3 29 30 198 
3 105 297 288 
3 106 298 287 
3 113 173 357 
3 114 174 358 
3 93 233 179 
3 94 234 180 
3 164 345 277 
3 163 346 278 
3 99 249 207 
3 100 250 208 
3 15 253 171 
3 16 254 172 
3 121 165 313 
3 122 166 314 
3 15 282 92 
3 16 281 82 
3 121 235 165 
3 122 236 166 
3 207 249 331 
3 208 250 332 
3 17 18 191 
3 27 28 192 
3 135 171 253 
3 136 172 254 
3 186 351 227 
3 185 352 228 
3 125 316 167 
3 126 315 168 
3 78 262 170 
3 88 261 169 
3 137 351 186 
3 138 352 185 
3 125 167 237 
3 126 168 238 
3 123 169 261 
3 124 170 262 
3 139 183 347 
3 140 184 348 
3 195 297 285 
3 196 298 286 
3 139 347 295 
3 140 348 296 
3 111 177 320 
3 112 178 319 
3 137 297 195 
3 138 298 196 
3 139 295 169 
3 140 296 170 
3 123 291 169 
3 124 292 170 
3 112 269 264 
3 111 270 263 
3 30 327 198 
3 20 328 197 
3 124 189 292 
3 123 190 291 
3 141 206 303 
3 142 205 304 
3 189 283 292 
3 190 284 291 
3 111 263 177 
3 112 264 178 
3 97 187 210 
3 98 188 209 
3 69 70 220 
3 51 52 219 
3 117 227 231 
3 118 228 232 
3 137 186 281 
3 138 185 282 
3 73 74 341 
3 83 84 342 
3 39 293 175 
3 57 294 176 
3 109 197 319 
3 110 198 320 
3 154 319 197 
3 153 320 198 
3 94 265 173 
3 93 266 174 
3 47 314 308 
3 65 313 307 
3 44 310 315 
3 62 309 316 
3 166 308 314 
3 165 307 313 
3 168 315 310 
3 167 316 309 
3 146 233 264 
3 145 234 263 
3 39 175 303 
3 57 176 304 
3 53 54 199 
3 71 72 200 
3 347 251 86 
3 348 252 76 
3 183 251 347 
3 184 252 348 
3 119 325 311 
3 120 326 312 
3 97 189 242 
3 98 190 241 
3 117 186 227 
3 118 185 228 
3 115 279 194 
3 116 280 193 
3 97 235 189 
3 98 236 190 
3 171 298 282 
3 172 297 281 
3 137 281 297 
3 138 282 298 
3 124 242 189 
3 123 241 190 
3 111 215 205 
3 112 216 206 
3 143 241 229 
3 144 242 230 
3 107 231 181 
3 108 232 182 
3 109 329 191 
3 110 330 192 
3 123 229 241 
3 124 230 242 
3 146 271 207 
3 145 272 208 
3 40 41 224 
3 58 59 223 
3 121 189 235 
3 122 190 236 
3 151 191 329 
3 152 192 330 
3 115 179 233 
3 116 180 234 
3 163 181 346 
3 164 182 345 
3 50 51 226 
3 68 69 225 
3 149 343 221 
3 150 344 222 
3 99 207 271 
3 100 208 272 
3 131 259 175 
3 132 260 176 
3 165 235 300 
3 166 236 299 
3 146 264 269 
3 145 263 270 
3 95 195 237 
3 96 196 238 
3 17 191 301 
3 27 192 302 
3 39 40 293 
3 57 58 294 
3 139 337 183 
3 140 338 184 
3 109 319 178 
3 110 320 177 
3 95 305 181 
3 96 306 182 
3 119 251 183 
3 120 252 184 
3 94 177 263 
3 93 178 264 
3 71 200 322 
3 53 199 321 
3 167 305 237 
3 168 306 238 
3 119 183 247 
3 120 184 248 
3 125 237 195 
3 126 238 196 
3 131 175 293 
3 132 176 294 
3 150 322 200 
3 149 321 199 
3 115 312 179 
3 116 311 180 
3 117 267 218 
3 118 268 217 
3 144 218 267 
3 143 217 268 
3 111 205 270 
3 112 206 269 
3 157 243 354 
3 158 244 353 
3 117 318 186 
3 118 317 185 
3 106 287 255 
3 105 288 256 
3 85 251 193 
3 75 252 194 
3 101 325 247 
3 102 326 248 
3 54 274 199 
3 72 273 200 
3 119 193 251 
3 120 194 252 
3 159 355 245 
3 160 356 246 
3 115 331 279 
3 116 332 280 
3 154 197 328 
3 153 198 327 
3 99 201 249 
3 100 202 250 
3 135 249 201 
3 136 250 202 
3 56 57 304 
3 38 39 303 
3 142 270 205 
3 141 269 206 
3 101 203 239 
3 102 204 240 
3 144 267 187 
3 143 268 188 
3 133 239 203 
3 134 240 204 
3 115 194 312 
3 116 193 311 
3 88 89 261 
3 78 79 262 
3 90 91 317 
3 80 81 318 
3 175 359 303 
3 176 360 304 
3 133 219 239 
3 134 220 240 
3 141 303 359 
3 142 304 360 
3 90 317 217 
3 80 318 218 
3 149 239 219 
3 150 240 220 
3 18 333 191 
3 28 334 192 
3 104 292 283 
3 103 291 284 
3 181 305 346 
3 182 306 345 
3 121 283 189 
3 122 284 190 
3 91 185 317 
3 81 186 318 
3 103 257 289 
3 104 258 290 
3 115 233 207 
3 116 234 208 
3 151 301 191 
3 152 302 192 
3 105 285 297 
3 106 286 298 
3 89 229 261 
3 79 230 262 
3 146 207 233 
3 145 208 234 
3 99 259 201 
3 100 260 202 
3 47 48 314 
3 65 66 313 
3 43 44 315 
3 61 62 316 
3 97 210 300 
3 98 209 299 
3 143 339 217 
3 144 340 218 
3 135 253 341 
3 136 254 342 
3 121 313 243 
3 122 314 244 
3 40 224 293 
3 58 223 294 
3 131 201 259 
3 132 202 260 
3 125 195 285 
3 126 196 286 
3 95 351 195 
3 96 352 196 
3 143 229 339 
3 144 230 340 
3 125 245 316 
3 126 246 315 
3 127 277 345 
3 128 278 346 
3 117 231 267 
3 118 232 268 
3 134 258 225 
3 133 257 226 
3 12 273 72 
3 9 274 54 
3 137 195 351 
3 138 196 352 
3 157 225 258 
3 158 226 257 
3 60 61 245 
3 42 43 246 
3 66 67 243 
3 48 49 244 
3 132 223 256 
3 131 224 255 
3 183 337 247 
3 184 338 248 
3 159 256 223 
3 160 255 224 
3 85 86 251 
3 75 76 252 
3 119 311 193 
3 120 312 194 
3 15 73 253 
3 16 83 254 
3 113 199 336 
3 114 200 335 
3 135 201 287 
3 136 202 288 
3 26 211 276 
3 36 212 275 
3 117 218 318 
3 118 217 317 
3 22 277 214 
3 32 278 213 
3 155 331 249 
3 156 332 250 
3 199 274 336 
3 200 273 335 
3 19 197 333 
3 29 198 334 
3 128 346 305 
3 127 345 306 
3 139 289 203 
3 140 290 204 
3 35 36 275 
3 25 26 276 
3 22 23 277 
3 32 33 278 
3 130 276 211 
3 129 275 212 
3 127 214 277 
3 128 213 278 
3 113 343 199 
3 114 344 200 
3 67 354 243 
3 49 353 244 
3 42 246 356 
3 60 245 355 
3 101 337 203 
3 102 338 204 
3 157 354 225 
3 158 353 226 
3 123 261 229 
3 124 262 230 
3 149 199 343 
3 150 200 344 
3 159 223 355 
3 160 224 356 
3 68 225 354 
3 50 226 353 
3 155 279 331 
3 156 280 332 
3 46 47 308 
3 64 65 307 
3 59 355 223 
3 41 356 224 
3 62 63 309 
3 44 45 310 
3 146 269 271 
3 145 270 272 
3 131 293 224 
3 132 294 223 
3 130 299 209 
3 129 300 210 
3 141 271 269 
3 142 272 270 
3 12 17 301 
3 9 27 302 
3 46 308 211 
3 64 307 212 
3 149 219 321 
3 150 220 322 
3 7 215 349 
3 14 216 350 
3 95 227 351 
3 96 228 352 
3 89 90 339 
3 79 80 340 
3 63 213 309 
3 45 214 310 
3 139 203 337 
3 140 204 338 
3 52 321 219 
3 70 322 220 
3 28 29 334 
3 18 19 333 
3 12 301 273 
3 9 302 274 
3 153 349 215 
3 154 350 216 
3 115 207 331 
3 116 208 332 
3 7 349 31 
3 14 350 21 
3 89 339 229 
3 79 340 230 
3 52 53 321 
3 70 71 322 
3 99 359 259 
3 100 360 260 
3 151 273 301 
3 152 274 302 
3 99 271 359 
3 100 272 360 
3 30 31 327 
3 20 21 328 
3 97 300 235 
3 98 299 236 
3 41 42 356 
3 59 60 355 
3 67 68 354 
3 49 50 353 
3 86 87 347 
3 76 77 348 
3 147 221 357 
3 148 222 358 
3 101 247 337 
3 102 248 338 
3 90 217 339 
3 80 218 340 
3 95 237 305 
3 96 238 306 
3 113 357 221 
3 114 358 222 
3 113 221 343 
3 114 222 344 
3 66 243 313 
3 48 244 314 
3 43 315 246 
3 61 316 245 
3 119 247 325 
3 120 248 326 
3 175 259 359 
3 176 260 360 
3 73 341 253 
3 83 342 254 
3 87 295 347 
3 77 296 348 
3 151 335 273 
3 152 336 274 
3 153 327 349 
3 154 328 350 
3 147 357 265 
3 148 358 266 
3 141 359 271 
3 142 360 272 
3 31 349 327 
3 21 350 328 

CELL_TYPES 622
5 
5 
5 
5 
5 
5 
5 
5 
5 
5 
5 
5 
5 
5 
5 
5 
5 
5 
5 
5 
5 
5 
5 
5 
5 
5 
5 
5 
5 
5 
5 
5 
5 
5 
5 
5 
5 
5 
5 
5 
5 
5 
5 
5 
5 
5 
5 
5 
5 
5 
5 
5 
5 
5 
5 
5 
5 
5 
5 
5 
5 
5 
5 
5 
5 
5 
5 
5 
5 
5 
5 
5 
5 
5 
5 
5 
5 
5 
5 
5 
5 
5 
5 
5 
5 
5 
5 
5 
5 
5 
5 
5 
5 
5 
5 
5 
5 
5 
5 
5 
5 
5 
5 
5 
5 
5 
5 
5 
5 
5 
5 
5 
5 
5 
5 
5 
5 
5 
5 
5 
5 
5 
5 
5 
5 
5 
5 
5 
5 
5 
5 
5 
5 
5 
5 
5 
5 
5 
5 
5 
5 
5 
5 
5 
5 
5 
5 
5 
5 
5 
5 
5 
5 
5 
5 
5 
5 
5 
5 
5 
5 
5 
5 
5 
5 
5 
5 
5 
5 
5 
5 
5 
5 
5 
5 
5 
5 
5 
5 
5 
5 
5 
5 
5 
5 
5 
5 
5 
5 
5 
5 
5 
5 
5 
5 
5 
5 
5 
5 
5 
5 
5 
5 
5 
5 
5 
5 
5 
5 
5 
5 
5 
5 
5 
5 
5 
5 
5 
5 
5 
5 
5 
5 
5 
5 
5 
5 
5 
5 
5 
5 
5 
5 
5 
5 
5 
5 
5 
5 
5 
5 
5 
5 
5 
5 
5 
5 
5 
5 
5 
5 
5 
5 
5 
5 
5 
5 
5 
5 
5 
5 
5 
5 
5 
5 
5 
5 
5 
5 
5 
5 
5 
5 
5 
5 
5 
5 
5 
5 
5 
5 
5 
5 
5 
5 
5 
5 
5 
5 
5 
5 
5 
5 
5 
5 
5 
5 
5 
5 
5 
5 
5 
5 
5 
5 
5 
5 
5 
5 
5 
5 
5 
5 
5 
5 
5 
5 
5 
5 
5 
5 
5 
5 
5 
5 
5 
5 
5 
5 
5 
5 
5 
5 
5 
5 
5 
5 
5 
5 
5 
5 
5 
5 
5 
5 
5 
5 
5 
5 
5 
5 
5 
5 
5 
5 
5 
5 
5 
5 
5 
5 
5 
5 
5 
5 
5 
5 
5 
5 
5 
5 
5 
5 
5 
5 
5 
5 
5 
5 
5 
5 
5 
5 
5 
5 
5 
5 
5 
5 
5 
5 
5 
5 
5 
5 
5 
5 
5 
5 
5 
5 
5 
5 
5 
5 
5 
5 
5 
5 
5 
5 
5 
5 
5 
5 
5 
5 
5 
5 
5 
5 
5 
5 
5 
5 
5 
5 
5 
5 
5 
5 
5 
5 
5 
5 
5 
5 
5 
5 
5 
5 
5 
5 
5 
5 
5 
5 
5 
5 
5 
5 
5 
5 
5 
5 
5 
5 
5 
5 
5 
5 
5 
5 
5 
5 
5 
5 
5 
5 
5 
5 
5 
5 
5 
5 
5 
5 
5 
5 
5 
5 
5 
5 
5 
5 
5 
5 
5 
5 
5 
5 
5 
5 
5 
5 
5 
5 
5 
5 
5 
5 
5 
5 
5 
5 
5 
5 
5 
5 
5 
5 
5 
5 
5 
5 
5 
5 
5 
5 
5 
5 
5 
5 
5 
5 
5 
5 
5 
5 
5 
5 
5 
5 
5 
5 
5 
5 
5 
5 
5 
5 
5 
5 
5 
5 
5 
5 
5 
5 
5 
5 
5 
5 
5 
5 
5 
5 
5 
5 
5 
5 
5 
5 
5 
5 
5 
5 
5 
5 
5 
5 
5 
5 
5 
5 
5 
5 
5 
5 
5 
5 
5 
5 
5 
5 
5 
5 
5 
5 
5 
5 
5 
5 
5 
5 
5 
5 
5 
5 
5 
5 
5 
5 
5 
5 
5 
5 
5 
5 
5 
5 
5 
5 
5 
5 
5 
5 
5 
5 
5 
5 
5 
POINT_DATA 361
SCALARS GMDS_ID int 1
LOOKUP_TABLE default
0 1 2 3 4 5 6 7 8 9 10 11 12 13 14 15 16 17 18 19 20 21 22 23 24 25 26 27 28 29 30 31 32 33 34 35 36 37 38 39 40 41 42 43 44 45 46 47 48 49 50 51 52 53 54 55 56 57 58 59 60 61 62 63 64 65 66 67 68 69 70 71 72 73 74 75 76 77 78 79 80 81 82 83 84 85 86 87 88 89 90 91 92 93 94 95 96 97 98 99 100 101 102 103 104 105 106 107 108 109 110 111 112 113 114 115 116 117 118 119 120 121 122 123 124 125 126 127 128 129 130 131 132 133 134 135 136 137 138 139 140 141 142 143 144 145 146 147 148 149 150 151 152 153 154 155 156 157 158 159 160 161 162 163 164 165 166 167 168 169 170 171 172 173 174 175 176 177 178 179 180 181 182 183 184 185 186 187 188 189 190 191 192 193 194 195 196 197 198 199 200 201 202 203 204 205 206 207 208 209 210 211 212 213 214 215 216 217 218 219 220 221 222 223 224 225 226 227 228 229 230 231 232 233 234 235 236 237 238 239 240 241 242 243 244 245 246 247 248 249 250 251 252 253 254 255 256 257 258 259 260 261 262 263 264 265 266 267 268 269 270 271 272 273 274 275 276 277 278 279 280 281 282 283 284 285 286 287 288 289 290 291 292 293 294 295 296 297 298 299 300 301 302 303 304 305 306 307 308 309 310 311 312 313 314 315 316 317 318 319 320 321 322 323 324 325 326 327 328 329 330 331 332 333 334 335 336 337 338 339 340 341 342 343 344 345 346 347 348 349 350 351 352 353 354 355 356 357 358 359 360 
SCALARS angle float 1
LOOKUP_TABLE default
0 0 0 0 0 0 0 0.261799 0 6.02139 0 0 6.02139 0 0.261799 0 -0 5.23599 4.18879 3.14159 2.0944 1.0472 1.0472 2.0944 3.14159 4.18879 5.23599 5.23599 4.18879 3.14159 2.0944 1.0472 1.0472 2.0944 3.14159 4.18879 5.23599 0 0 0 0 0 0 0 0 0 0 0 0 0 0 0 0 0 0 0 0 0 0 0 0 0 0 0 0 0 0 0 0 0 0 0 0 1.1424 2.28479 3.42719 4.56959 5.71199 0.571199 1.7136 2.85599 3.99839 5.14079 1.1424 2.28479 3.42719 4.56959 5.71199 0.571199 1.7136 2.85599 3.99839 5.14079 6.24569 6.24569 6.18391 6.18391 5.92209 5.92209 0.22328 0.22328 5.95503 5.95503 6.22924 6.22924 6.24757 6.24757 3.23236 3.23236 5.44941 5.44941 0.192043 0.192043 6.09587 6.09587 1.36129 1.36129 3.9755 3.9755 4.68841 4.68841 6.22638 6.22638 0.767086 0.767086 6.27413 6.27413 0.615828 0.615828 5.34929 5.34929 0.0473836 0.0473836 6.19183 6.19183 0.468607 0.468607 5.64522 5.64522 5.854 5.854 0.0839056 0.0839056 2.98335 2.98335 0.173228 0.173228 5.97494 5.97494 6.19981 6.19981 5.88249 5.88249 0.548667 0.548667 1.34787 1.34787 6.25353 6.25353 6.27267 6.27267 4.10536 4.10536 2.49748 2.49748 6.10894 6.10894 0.120122 0.120122 0.0381669 0.0381669 6.15167 6.15167 6.05574 6.05574 0.0395125 0.0395125 6.24638 6.24638 6.06922 6.06922 1.87683 1.87683 5.26051 5.26051 4.7307 4.7307 3.94862 3.94862 0.0111405 0.0111405 4.80942 4.80942 3.31997 3.31997 6.10105 6.10105 3.23906 3.23906 6.19114 6.19114 0.144634 0.144634 6.05728 6.05728 0.0816701 0.0816701 0.410868 0.410868 4.76558 4.76558 5.87452 5.87452 0.242734 0.242734 0.317953 0.317953 3.39782 3.39782 6.23266 6.23266 6.07542 6.07542 0.0107455 0.0107455 6.24994 6.24994 4.97471 4.97471 2.05565 2.05565 3.81202 3.81202 0.196754 0.196754 6.1064 6.1064 0.0377839 0.0377839 6.13852 6.13852 0.661902 0.661902 6.26143 6.26143 0.0012477 0.0012477 5.60036 5.60036 0.527253 0.527253 4.36203 4.36203 0.694419 0.694419 0.0212287 0.0212287 6.20691 6.20691 0.0952183 0.0952183 1.43165 1.43165 0.105798 0.105798 6.08387 6.08387 3.5752 3.5752 0.120543 0.120543 0.150048 0.150048 6.02162 6.02162 4.83788 4.83788 1.53129 1.53129 2.31143 2.31143 5.48668 5.48668 6.25588 6.25588 6.21104 6.21104 0.0584016 0.0584016 6.14722 6.14722 0.0422894 0.0422894 0.0194448 0.0194448 5.82031 5.82031 6.04574 6.04574 5.79189 5.79189 5.91254 5.91254 0.0310193 0.0310193 0.462739 0.462739 6.12453 6.12453 0.12943 0.12943 4.43109 4.43109 6.2384 6.2384 0.0235879 0.0235879 3.97836 3.97836 0.118112 0.118112 6.258 6.258 3.0969 3.0969 5.66804 5.66804 0.95379 0.95379 5.85608 5.85608 1.11867 1.11867 3.77824 3.77824 6.03154 6.03154 5.80609 5.80609 2.86717 2.86717 1.08163 1.08163 6.1503 6.1503 1.52653 1.52653 5.57177 5.57177 0.804631 0.804631 5.7063 5.7063 6.27415 6.27415 2.76172e-05 2.76172e-05 6.06407 6.06407 0.0858887 0.0858887 
VECTORS cross_X float
1 0 0 1 0 0 1 0 0 1 0 0 1 0 0 1 0 0 1 0 0 0.997859 0.0654031 0 1 0 0 0.0654031 0.997859 0 1 0 0 1 0 0 0.0654031 0.997859 0 1 0 0 0.997859 0.0654031 0 1 0 0 1 0 0 0.258819 0.965926 0 0.5 0.866025 0 0.707107 0.707107 0 0.866025 0.5 0 0.965926 0.258819 0 0.965926 0.258819 0 0.866025 0.5 0 0.707107 0.707107 0 0.5 0.866025 0 0.258819 0.965926 0 0.258819 0.965926 0 0.5 0.866025 0 0.707107 0.707107 0 0.866025 0.5 0 0.965926 0.258819 0 0.965926 0.258819 0 0.866025 0.5 0 0.707107 0.707107 0 0.5 0.866025 0 0.258819 0.965926 0 1 0 0 1 0 0 1 0 0 1 0 0 1 0 0 1 0 0 1 0 0 1 0 0 1 0 0 1 0 0 1 0 0 1 0 0 1 0 0 1 0 0 1 0 0 1 0 0 1 0 0 1 0 0 1 0 0 1 0 0 1 0 0 1 0 0 1 0 0 1 0 0 1 0 0 1 0 0 1 0 0 1 0 0 1 0 0 1 0 0 1 0 0 1 0 0 1 0 0 1 0 0 1 0 0 1 0 0 0.959493 0.281733 0 0.841254 0.540641 0 0.654861 0.75575 0 0.415415 0.909632 0 0.142315 0.989821 0 0.989821 0.142315 0 0.909632 0.415415 0 0.75575 0.654861 0 0.540641 0.841254 0 0.281733 0.959493 0 0.959493 0.281733 0 0.841254 0.540641 0 0.654861 0.75575 0 0.415415 0.909632 0 0.142315 0.989821 0 0.989821 0.142315 0 0.909632 0.415415 0 0.75575 0.654861 0 0.540641 0.841254 0 0.281733 0.959493 0 0.00937417 0.999956 0 0.00937417 0.999956 0 0.0248163 0.999692 0 0.0248163 0.999692 0 0.0901502 0.995928 0 0.0901502 0.995928 0 0.998442 0.0557909 0 0.998442 0.0557909 0 0.0819467 0.996637 0 0.0819467 0.996637 0 0.0134864 0.999909 0 0.0134864 0.999909 0 0.00890445 0.99996 0 0.00890445 0.99996 0 0.690881 0.722968 0 0.690881 0.722968 0 0.206938 0.978354 0 0.206938 0.978354 0 0.998848 0.0479923 0 0.998848 0.0479923 0 0.0468112 0.998904 0 0.0468112 0.998904 0 0.942647 0.333791 0 0.942647 0.333791 0 0.545446 0.838146 0 0.545446 0.838146 0 0.388215 0.921569 0 0.388215 0.921569 0 0.014201 0.999899 0 0.014201 0.999899 0 0.981668 0.190598 0 0.981668 0.190598 0 0.00226433 0.999997 0 0.00226433 0.999997 0 0.988172 0.15335 0 0.988172 0.15335 0 0.231357 0.972869 0 0.231357 0.972869 0 0.99993 0.0118456 0 0.99993 0.0118456 0 0.0228364 0.999739 0 0.0228364 0.999739 0 0.993146 0.116884 0 0.993146 0.116884 0 0.158817 0.987308 0 0.158817 0.987308 0 0.107089 0.994249 0 0.107089 0.994249 0 0.99978 0.0209749 0 0.99978 0.0209749 0 0.73452 0.678587 0 0.73452 0.678587 0 0.999062 0.0432935 0 0.999062 0.0432935 0 0.0769861 0.997032 0 0.0769861 0.997032 0 0.0208415 0.999783 0 0.0208415 0.999783 0 0.100006 0.994987 0 0.100006 0.994987 0 0.990607 0.136737 0 0.990607 0.136737 0 0.943762 0.330626 0 0.943762 0.330626 0 0.0074144 0.999973 0 0.0074144 0.999973 0 0.00262894 0.999997 0 0.00262894 0.999997 0 0.517953 0.855409 0 0.517953 0.855409 0 0.811332 0.584586 0 0.811332 0.584586 0 0.0435467 0.999051 0 0.0435467 0.999051 0 0.999549 0.030026 0 0.999549 0.030026 0 0.999954 0.00954157 0 0.999954 0.00954157 0 0.0328729 0.99946 0 0.0328729 0.99946 0 0.0568314 0.998384 0 0.0568314 0.998384 0 0.999951 0.00987797 0 0.999951 0.00987797 0 0.00920243 0.999958 0 0.00920243 0.999958 0 0.0534664 0.99857 0 0.0534664 0.99857 0 0.891927 0.452179 0 0.891927 0.452179 0 0.252893 0.967494 0 0.252893 0.967494 0 0.37845 0.925622 0 0.37845 0.925622 0 0.551066 0.834461 0 0.551066 0.834461 0 0.999996 0.00278513 0 0.999996 0.00278513 0 0.360162 0.93289 0 0.360162 0.93289 0 0.674881 0.737927 0 0.674881 0.737927 0 0.0455184 0.998964 0 0.0455184 0.998964 0 0.689668 0.724126 0 0.689668 0.724126 0 0.0230083 0.999735 0 0.0230083 0.999735 0 0.999346 0.0361505 0 0.999346 0.0361505 0 0.0564453 0.998406 0 0.0564453 0.998406 0 0.999792 0.0204161 0 0.999792 0.0204161 0 0.994729 0.102537 0 0.994729 0.102537 0 0.370365 0.928886 0 0.370365 0.928886 0 0.101989 0.994786 0 0.101989 0.994786 0 0.998159 0.0606464 0 0.998159 0.0606464 0 0.996842 0.0794045 0 0.996842 0.0794045 0 0.660393 0.75092 0 0.660393 0.75092 0 0.012631 0.99992 0 0.012631 0.99992 0 0.0519187 0.998651 0 0.0519187 0.998651 0 0.999996 0.00268636 0 0.999996 0.00268636 0 0.00831248 0.999965 0 0.00831248 0.999965 0 0.321316 0.946972 0 0.321316 0.946972 0 0.870828 0.491588 0 0.870828 0.491588 0 0.579236 0.81516 0 0.579236 0.81516 0 0.99879 0.0491686 0 0.99879 0.0491686 0 0.0441819 0.999024 0 0.0441819 0.999024 0 0.999955 0.00944584 0 0.999955 0.00944584 0 0.0361576 0.999346 0 0.0361576 0.999346 0 0.98634 0.164721 0 0.98634 0.164721 0 0.00543935 0.999985 0 0.00543935 0.999985 0 1 0.000311925 0 1 0.000311925 0 0.169878 0.985465 0 0.169878 0.985465 0 0.991325 0.131432 0 0.991325 0.131432 0 0.462036 0.886861 0 0.462036 0.886861 0 0.984969 0.172734 0 0.984969 0.172734 0 0.999986 0.00530715 0 0.999986 0.00530715 0 0.0190673 0.999818 0 0.0190673 0.999818 0 0.999717 0.0238023 0 0.999717 0.0238023 0 0.93663 0.350319 0 0.93663 0.350319 0 0.99965 0.0264465 0 0.99965 0.0264465 0 0.0498089 0.998759 0 0.0498089 0.998759 0 0.626454 0.779458 0 0.626454 0.779458 0 0.999546 0.0301311 0 0.999546 0.0301311 0 0.999297 0.0375031 0 0.999297 0.0375031 0 0.0653444 0.997863 0 0.0653444 0.997863 0 0.353515 0.935429 0 0.353515 0.935429 0 0.927614 0.373541 0 0.927614 0.373541 0 0.837634 0.546231 0 0.837634 0.546231 0 0.197814 0.98024 0 0.197814 0.98024 0 0.00682608 0.999977 0 0.00682608 0.999977 0 0.018036 0.999837 0 0.018036 0.999837 0 0.999893 0.0145999 0 0.999893 0.0145999 0 0.0339841 0.999422 0 0.0339841 0.999422 0 0.999944 0.0105722 0 0.999944 0.0105722 0 0.999988 0.00486118 0 0.999988 0.00486118 0 0.115462 0.993312 0 0.115462 0.993312 0 0.0593252 0.998239 0 0.0593252 0.998239 0 0.122516 0.992467 0 0.122516 0.992467 0 0.0925286 0.99571 0 0.0925286 0.99571 0 0.99997 0.00775475 0 0.99997 0.00775475 0 0.993316 0.115427 0 0.993316 0.115427 0 0.0396529 0.999214 0 0.0396529 0.999214 0 0.999477 0.0323518 0 0.999477 0.0323518 0 0.446656 0.894706 0 0.446656 0.894706 0 0.0111955 0.999937 0 0.0111955 0.999937 0 0.999983 0.00589695 0 0.999983 0.00589695 0 0.544848 0.838535 0 0.544848 0.838535 0 0.999564 0.0295238 0 0.999564 0.0295238 0 0.00629504 0.99998 0 0.00629504 0.99998 0 0.714963 0.699162 0 0.714963 0.699162 0 0.15318 0.988198 0 0.15318 0.988198 0 0.971706 0.236194 0 0.971706 0.236194 0 0.106574 0.994305 0 0.106574 0.994305 0 0.961147 0.276037 0 0.961147 0.276037 0 0.5861 0.810239 0 0.5861 0.810239 0 0.0628703 0.998022 0 0.0628703 0.998022 0 0.118992 0.992895 0 0.118992 0.992895 0 0.753918 0.656969 0 0.753918 0.656969 0 0.963662 0.267123 0 0.963662 0.267123 0 0.0332161 0.999448 0 0.0332161 0.999448 0 0.928058 0.372436 0 0.928058 0.372436 0 0.176918 0.984226 0 0.176918 0.984226 0 0.979836 0.199804 0 0.979836 0.199804 0 0.143723 0.989618 0 0.143723 0.989618 0 0.00225793 0.999997 0 0.00225793 0.999997 0 1 6.90429e-06 0 1 6.90429e-06 0 0.0547508 0.9985 0 0.0547508 0.9985 0 0.999769 0.0214705 0 0.999769 0.0214705 0 
VECTORS VY float