# vtk DataFile Version 3.0
Generated by GMDS VTK Writer

ASCII
DATASET UNSTRUCTURED_GRID
POINTS 295 float
0 0 0
10 0 0
10 10 0
0 10 0
5 5 0
10 8 0
8 10 0
8 0 0
8 2 0
10 2 0
2 0 0
0 2 0
0 8 0
2 8 0
2 10 0
5 7 0
5 3 0
0.097887 8.61803 0
0.381966 9.17557 0
0.824429 9.61803 0
1.38197 9.90211 0
8.09789 9.38197 0
8.38197 8.82443 0
8.82443 8.38197 0
9.38197 8.09789 0
9.90211 1.38197 0
9.61803 0.824429 0
9.17557 0.381966 0
8.61803 0.097887 0
1.90211 0.618034 0
1.61803 1.17557 0
1.17557 1.61803 0
0.618034 1.90211 0
2.66667 10 0
3.33333 10 0
4 10 0
4.66667 10 0
5.33333 10 0
6 10 0
6.66667 10 0
7.33333 10 0
10 7.33333 0
10 6.66667 0
10 6 0
10 5.33333 0
10 4.66667 0
10 4 0
10 3.33333 0
10 2.66667 0
7.33333 0 0
6.66667 0 0
6 0 0
5.33333 0 0
4.66667 0 0
4 0 0
3.33333 0 0
2.66667 0 0
0 2.66667 0
0 3.33333 0
0 4 0
0 4.66667 0
0 5.33333 0
0 6 0
0 6.66667 0
0 7.33333 0
4.31596 6.87939 0
3.71442 6.53209 0
3.26795 6 0
3.03038 5.3473 0
3.03038 4.6527 0
3.26795 4 0
3.71442 3.46791 0
4.31596 3.12061 0
5.68404 3.12061 0
6.28558 3.46791 0
6.73205 4 0
6.96962 4.6527 0
6.96962 5.3473 0
6.73205 6 0
6.28558 6.53209 0
5.68404 6.87939 0
2.10555 7.89445 0
7.89445 2.10555 0
3.26333 1.73706 0
6.73667 8.26294 0
1.71881 3.25082 0
8.28119 6.74918 0
1.63923 6.25658 0
8.36077 3.74342 0
3.59274 8.3907 0
6.40726 1.6093 0
8.58888 5.18538 0
1.41112 4.81462 0
4.75712 1.50847 0
5.24288 8.49153 0
2.14441 2.14647 0
7.85559 7.85353 0
8.69186 1.30814 0
1.30814 8.69186 0
2.64425 8.93919 0
7.35575 1.06081 0
1.1235 7.34849 0
8.8765 2.65151 0
2.5736 6.85343 0
7.4264 3.14657 0
2.74807 3.07018 0
7.25193 6.92982 0
0.927701 3.88453 0
9.0723 6.11547 0
3.86259 0.918487 0
6.13741 9.08151 0
4.41813 9.04078 0
5.58187 0.959224 0
9.05797 4.39054 0
0.942032 5.60946 0
7.78657 5.90348 0
2.21343 4.09652 0
4.48055 7.84118 0
5.51945 2.15882 0
3.35181 7.47252 0
6.64819 2.52748 0
2.78525 0.950437 0
7.21475 9.04956 0
9.1188 7.14979 0
0.8812 2.85021 0
4.09771 2.19446 0
5.90229 7.80554 0
7.90105 4.48548 0
2.09895 5.51452 0
8.0845 0.880691 0
1.9155 9.11931 0
0.888155 8.08364 0
9.11185 1.91636 0
3.41747 9.1803 0
6.58253 0.819698 0
0.819698 6.58253 0
9.1803 3.41747 0
3.00491 8.03087 0
6.99509 1.96913 0
3.33255 2.57775 0
6.66745 7.42225 0
7.93341 2.8001 0
2.06659 7.1999 0
9.25397 5.13673 0
0.746034 4.86327 0
4.84479 0.746265 0
5.15521 9.25373 0
8.43173 7.74874 0
1.56827 2.25126 0
2.31574 1.5226 0
7.68426 8.4774 0
2.55587 6.16946 0
7.44413 3.83054 0
7.57811 5.13214 0
2.42189 4.86786 0
5.19229 7.69272 0
4.80771 2.30728 0
1.98996 8.54633 0
8.01004 1.45367 0
1.45367 8.01004 0
8.54633 1.98996 0
0.649173 3.37881 0
9.35083 6.62119 0
3.35292 0.655759 0
6.64708 9.34424 0
2.71645 7.38623 0
7.28355 2.61377 0
2.79984 2.17877 0
7.20016 7.82123 0
8.66133 0.650705 0
1.33867 9.3493 0
0.651949 8.66119 0
9.34805 1.33881 0
1.7644 1.74279 0
8.2356 8.25721 0
2.13454 2.76958 0
7.86546 7.23042 0
1.59981 3.83962 0
8.40019 6.16038 0
7.24782 6.35713 0
2.75218 3.64287 0
3.85776 1.57215 0
6.14224 8.42785 0
4.02121 7.40609 0
5.97879 2.59391 0
4.25379 8.39689 0
5.74621 1.60311 0
7.67025 0.460895 0
2.32975 9.5391 0
0.472589 7.6689 0
9.52741 2.3311 0
3.16837 6.94988 0
6.83163 3.05012 0
0.528125 4.29628 0
9.47188 5.70372 0
8.42303 4.29767 0
1.57697 5.70233 0
4.26989 0.532884 0
5.73011 9.46712 0
3.96031 9.42104 0
6.03969 0.578964 0
9.43228 3.94753 0
0.567722 6.05247 0
2.42332 0.492413 0
7.57668 9.50759 0
3.17606 8.67146 0
6.82394 1.32854 0
1.39736 6.85659 0
8.60264 3.14341 0
9.50468 7.56501 0
0.495319 2.43499 0
7.86625 3.46587 0
2.13375 6.53413 0
3.84608 2.7354 0
6.15392 7.2646 0
3.34495 1.2105 0
6.65505 8.7895 0
2.9157 9.53768 0
7.0843 0.462325 0
9.52705 2.91693 0
0.472952 7.08307 0
2.19447 3.44493 0
7.80553 6.55507 0
1.20385 3.38798 0
8.79615 6.61202 0
3.28437 3.20486 0
6.71563 6.79514 0
2.85996 1.48893 0
7.14004 8.51107 0
3.83248 8.85773 0
6.16752 1.14227 0
1.11051 6.12077 0
8.88949 3.87923 0
8.55936 7.18973 0
1.44064 2.81027 0
4.32206 1.17431 0
5.67794 8.82569 0
1.14687 4.38079 0
8.85313 5.61921 0
9.01156 7.71976 0
0.988443 2.28024 0
3.70778 7.86811 0
6.29222 2.13189 0
7.74097 9.0334 0
2.25903 0.966602 0
4.68991 9.48217 0
5.31009 0.517832 0
2.50459 8.40365 0
7.49541 1.59635 0
9.48546 4.67709 0
0.51454 5.32291 0
9.57203 7.06367 0
0.427974 2.93633 0
4.58882 7.33193 0
5.41118 2.66807 0
7.26283 5.74801 0
2.73717 4.25199 0
9.1409 0.859104 0
0.859104 9.1409 0
4.75305 8.64985 0
5.24695 1.35015 0
8.21626 5.48369 0
1.78374 4.51631 0
2.04079 6.02147 0
7.95921 3.97853 0
2.92684 0.419406 0
7.07316 9.58059 0
3.69868 7.04577 0
6.30132 2.95423 0
5.59931 7.37648 0
4.40069 2.62352 0
8.68027 4.72337 0
1.31973 5.27663 0
2.59592 5.64327 0
7.40408 4.35673 0
3.56832 2.13514 0
6.43168 7.86486 0
3.01468 6.45717 0
6.98532 3.54283 0
4.91834 8.11108 0
5.08166 1.88892 0
1.61108 7.48452 0
8.38892 2.51548 0
6.2231 9.57121 0
3.7769 0.428794 0
0.436833 3.80181 0
9.56317 6.19819 0
4.37851 1.76936 0
5.62149 8.23064 0
8.20683 0.418036 0
1.79317 9.58196 0
0.422116 8.20635 0
9.57788 1.79365 0
8.23127 4.88462 0
1.76873 5.11538 0

CELLS 502 2008
3 105 167 175 
3 106 168 176 
3 95 167 149 
3 96 168 150 
3 149 167 227 
3 150 168 228 
3 78 226 179 
3 70 225 180 
3 95 148 175 
3 96 147 176 
3 105 139 167 
3 106 140 168 
3 95 175 167 
3 96 176 168 
3 34 199 133 
3 50 200 134 
3 147 233 176 
3 148 234 175 
3 47 136 201 
3 63 135 202 
3 81 165 142 
3 82 166 141 
3 89 241 137 
3 90 242 138 
3 68 154 273 
3 76 153 274 
3 100 158 129 
3 99 157 130 
3 101 131 159 
3 102 132 160 
3 78 79 226 
3 70 71 225 
3 119 191 165 
3 120 192 166 
3 68 69 154 
3 76 77 153 
3 35 245 199 
3 51 246 200 
3 103 142 165 
3 104 141 166 
3 119 137 241 
3 120 138 242 
3 35 36 245 
3 51 52 246 
3 46 201 249 
3 62 202 250 
3 97 129 158 
3 98 130 157 
3 98 159 131 
3 97 160 132 
3 34 35 199 
3 50 51 200 
3 103 165 191 
3 104 166 192 
3 119 165 137 
3 120 166 138 
3 99 217 133 
3 100 218 134 
3 102 136 219 
3 101 135 220 
3 45 46 249 
3 61 62 250 
3 60 250 144 
3 44 249 143 
3 118 242 186 
3 117 241 185 
3 53 145 246 
3 37 146 245 
3 116 221 177 
3 115 222 178 
3 97 169 129 
3 98 170 130 
3 98 131 171 
3 97 132 172 
3 46 47 201 
3 62 63 202 
3 106 179 226 
3 105 180 225 
3 98 157 159 
3 97 158 160 
3 128 273 154 
3 127 274 153 
3 60 61 250 
3 44 45 249 
3 34 133 217 
3 50 134 218 
3 81 137 165 
3 82 138 166 
3 47 219 136 
3 63 220 135 
3 81 159 157 
3 82 160 158 
3 89 137 205 
3 90 138 206 
3 52 53 246 
3 36 37 245 
3 99 133 205 
3 100 134 206 
3 101 207 135 
3 102 208 136 
3 100 129 187 
3 99 130 188 
3 101 189 131 
3 102 190 132 
3 81 247 137 
3 82 248 138 
3 141 211 208 
3 142 212 207 
3 7 187 289 
3 14 188 290 
3 12 291 189 
3 9 292 190 
3 85 177 221 
3 86 178 222 
3 90 186 242 
3 89 185 241 
3 105 225 139 
3 106 226 140 
3 88 208 211 
3 87 207 212 
3 7 49 187 
3 14 33 188 
3 12 189 64 
3 9 190 48 
3 31 148 173 
3 23 147 174 
3 30 173 149 
3 22 174 150 
3 136 208 232 
3 135 207 231 
3 111 146 259 
3 112 145 260 
3 23 239 147 
3 31 240 148 
3 107 237 177 
3 108 238 178 
3 177 237 262 
3 178 238 261 
3 53 197 145 
3 37 198 146 
3 104 211 141 
3 103 212 142 
3 60 144 193 
3 44 143 194 
3 30 149 244 
3 22 150 243 
3 94 259 146 
3 93 260 145 
3 83 167 275 
3 84 168 276 
3 88 232 208 
3 87 231 207 
3 113 271 143 
3 114 272 144 
3 139 275 167 
3 140 276 168 
3 91 143 271 
3 92 144 272 
3 95 173 148 
3 96 174 147 
3 95 149 173 
3 96 150 174 
3 81 142 281 
3 82 141 282 
3 99 188 217 
3 100 187 218 
3 102 219 190 
3 101 220 189 
3 129 289 187 
3 130 290 188 
3 131 189 291 
3 132 190 292 
3 181 287 235 
3 182 288 236 
3 113 143 249 
3 114 144 250 
3 71 213 225 
3 79 214 226 
3 118 184 242 
3 117 183 241 
3 67 273 151 
3 75 274 152 
3 109 181 235 
3 110 182 236 
3 71 72 213 
3 79 80 214 
3 112 246 145 
3 111 245 146 
3 153 261 293 
3 154 262 294 
3 155 279 288 
3 156 280 287 
3 27 28 169 
3 19 20 170 
3 17 18 171 
3 25 26 172 
3 115 261 153 
3 116 262 154 
3 101 159 281 
3 102 160 282 
3 92 237 144 
3 91 238 143 
3 83 227 167 
3 84 228 168 
3 115 153 255 
3 116 154 256 
3 138 248 206 
3 137 247 205 
3 133 229 205 
3 134 230 206 
3 123 224 233 
3 124 223 234 
3 123 162 224 
3 124 161 223 
3 93 145 235 
3 94 146 236 
3 77 255 153 
3 69 256 154 
3 6 204 40 
3 10 203 56 
3 100 206 248 
3 99 205 247 
3 89 205 229 
3 90 206 230 
3 6 21 204 
3 10 29 203 
3 100 248 158 
3 99 247 157 
3 115 179 222 
3 116 180 221 
3 5 41 209 
3 11 57 210 
3 66 67 277 
3 74 75 278 
3 85 175 234 
3 86 176 233 
3 121 244 149 
3 122 243 150 
3 5 209 24 
3 11 210 32 
3 23 24 239 
3 31 32 240 
3 67 68 273 
3 75 76 274 
3 30 31 173 
3 22 23 174 
3 125 156 287 
3 126 155 288 
3 15 155 269 
3 16 156 270 
3 21 22 243 
3 29 30 244 
3 94 288 279 
3 93 287 280 
3 117 155 253 
3 118 156 254 
3 121 149 227 
3 122 150 228 
3 147 239 233 
3 148 240 234 
3 15 253 155 
3 16 254 156 
3 123 233 239 
3 124 234 240 
3 91 293 261 
3 92 294 262 
3 37 38 198 
3 53 54 197 
3 113 249 201 
3 114 250 202 
3 103 151 212 
3 104 152 211 
3 111 199 245 
3 112 200 246 
3 66 277 191 
3 74 278 192 
3 16 270 72 
3 15 269 80 
3 97 257 169 
3 98 258 170 
3 98 171 258 
3 97 172 257 
3 59 60 193 
3 43 44 194 
3 103 277 151 
3 104 278 152 
3 196 294 272 
3 195 293 271 
3 121 215 163 
3 122 216 164 
3 127 153 293 
3 128 154 294 
3 128 294 196 
3 127 293 195 
3 121 227 215 
3 122 228 216 
3 67 151 277 
3 75 152 278 
3 81 281 159 
3 82 282 160 
3 42 43 286 
3 58 59 285 
3 81 157 247 
3 82 158 248 
3 58 285 161 
3 42 286 162 
3 117 185 279 
3 118 186 280 
3 101 281 207 
3 102 282 208 
3 54 55 284 
3 38 39 283 
3 142 207 281 
3 141 208 282 
3 185 259 279 
3 186 260 280 
3 65 66 267 
3 73 74 268 
3 139 225 213 
3 140 226 214 
3 117 279 155 
3 118 280 156 
3 55 163 284 
3 39 164 283 
3 126 269 155 
3 125 270 156 
3 152 274 264 
3 151 273 263 
3 127 264 274 
3 128 263 273 
3 49 50 218 
3 33 34 217 
3 63 64 220 
3 47 48 219 
3 83 181 215 
3 84 182 216 
3 109 215 181 
3 110 216 182 
3 41 42 251 
3 57 58 252 
3 139 213 275 
3 140 214 276 
3 86 233 224 
3 85 234 223 
3 55 56 265 
3 39 40 266 
3 28 289 169 
3 20 290 170 
3 17 171 291 
3 25 172 292 
3 77 78 255 
3 69 70 256 
3 125 275 213 
3 126 276 214 
3 58 161 252 
3 42 162 251 
3 107 223 161 
3 108 224 162 
3 85 223 177 
3 86 224 178 
3 107 177 223 
3 108 178 224 
3 109 163 215 
3 110 164 216 
3 93 235 287 
3 94 236 288 
3 65 267 183 
3 73 268 184 
3 55 265 163 
3 39 266 164 
3 107 161 285 
3 108 162 286 
3 15 65 253 
3 16 73 254 
3 123 251 162 
3 124 252 161 
3 83 215 227 
3 84 216 228 
3 26 27 257 
3 18 19 258 
3 105 175 221 
3 106 176 222 
3 107 193 237 
3 108 194 238 
3 106 222 179 
3 105 221 180 
3 85 221 175 
3 86 222 176 
3 144 237 193 
3 143 238 194 
3 92 262 237 
3 91 261 238 
3 7 289 28 
3 14 290 20 
3 9 25 292 
3 12 17 291 
3 111 185 229 
3 112 186 230 
3 89 229 185 
3 90 230 186 
3 121 163 265 
3 122 164 266 
3 129 169 289 
3 130 170 290 
3 131 291 171 
3 132 292 172 
3 109 284 163 
3 110 283 164 
3 49 218 187 
3 33 217 188 
3 64 189 220 
3 48 190 219 
3 78 179 255 
3 70 180 256 
3 103 191 277 
3 104 192 278 
3 117 253 183 
3 118 254 184 
3 114 231 196 
3 113 232 195 
3 87 196 231 
3 88 195 232 
3 109 235 197 
3 110 236 198 
3 65 183 253 
3 73 184 254 
3 145 197 235 
3 146 198 236 
3 27 169 257 
3 19 170 258 
3 26 257 172 
3 18 258 171 
3 133 199 229 
3 134 200 230 
3 83 275 181 
3 84 276 182 
3 125 181 275 
3 126 182 276 
3 119 241 183 
3 120 242 184 
3 87 263 196 
3 88 264 195 
3 115 255 179 
3 116 256 180 
3 128 196 263 
3 127 195 264 
3 107 285 193 
3 108 286 194 
3 111 229 199 
3 112 230 200 
3 136 232 201 
3 135 231 202 
3 116 177 262 
3 115 178 261 
3 111 259 185 
3 112 260 186 
3 119 183 267 
3 120 184 268 
3 109 197 284 
3 110 198 283 
3 113 201 232 
3 114 202 231 
3 119 267 191 
3 120 268 192 
3 125 287 181 
3 126 288 182 
3 121 203 244 
3 122 204 243 
3 21 243 204 
3 29 244 203 
3 66 191 267 
3 74 192 268 
3 113 195 271 
3 114 196 272 
3 24 209 239 
3 32 210 240 
3 92 272 294 
3 91 271 293 
3 123 239 209 
3 124 240 210 
3 59 193 285 
3 43 194 286 
3 121 265 203 
3 122 266 204 
3 54 284 197 
3 38 283 198 
3 123 209 251 
3 124 210 252 
3 152 264 211 
3 151 263 212 
3 41 251 209 
3 57 252 210 
3 87 212 263 
3 88 211 264 
3 56 203 265 
3 40 204 266 
3 93 280 260 
3 94 279 259 
3 126 214 269 
3 125 213 270 
3 72 270 213 
3 80 269 214 

CELL_TYPES 502
5 
5 
5 
5 
5 
5 
5 
5 
5 
5 
5 
5 
5 
5 
5 
5 
5 
5 
5 
5 
5 
5 
5 
5 
5 
5 
5 
5 
5 
5 
5 
5 
5 
5 
5 
5 
5 
5 
5 
5 
5 
5 
5 
5 
5 
5 
5 
5 
5 
5 
5 
5 
5 
5 
5 
5 
5 
5 
5 
5 
5 
5 
5 
5 
5 
5 
5 
5 
5 
5 
5 
5 
5 
5 
5 
5 
5 
5 
5 
5 
5 
5 
5 
5 
5 
5 
5 
5 
5 
5 
5 
5 
5 
5 
5 
5 
5 
5 
5 
5 
5 
5 
5 
5 
5 
5 
5 
5 
5 
5 
5 
5 
5 
5 
5 
5 
5 
5 
5 
5 
5 
5 
5 
5 
5 
5 
5 
5 
5 
5 
5 
5 
5 
5 
5 
5 
5 
5 
5 
5 
5 
5 
5 
5 
5 
5 
5 
5 
5 
5 
5 
5 
5 
5 
5 
5 
5 
5 
5 
5 
5 
5 
5 
5 
5 
5 
5 
5 
5 
5 
5 
5 
5 
5 
5 
5 
5 
5 
5 
5 
5 
5 
5 
5 
5 
5 
5 
5 
5 
5 
5 
5 
5 
5 
5 
5 
5 
5 
5 
5 
5 
5 
5 
5 
5 
5 
5 
5 
5 
5 
5 
5 
5 
5 
5 
5 
5 
5 
5 
5 
5 
5 
5 
5 
5 
5 
5 
5 
5 
5 
5 
5 
5 
5 
5 
5 
5 
5 
5 
5 
5 
5 
5 
5 
5 
5 
5 
5 
5 
5 
5 
5 
5 
5 
5 
5 
5 
5 
5 
5 
5 
5 
5 
5 
5 
5 
5 
5 
5 
5 
5 
5 
5 
5 
5 
5 
5 
5 
5 
5 
5 
5 
5 
5 
5 
5 
5 
5 
5 
5 
5 
5 
5 
5 
5 
5 
5 
5 
5 
5 
5 
5 
5 
5 
5 
5 
5 
5 
5 
5 
5 
5 
5 
5 
5 
5 
5 
5 
5 
5 
5 
5 
5 
5 
5 
5 
5 
5 
5 
5 
5 
5 
5 
5 
5 
5 
5 
5 
5 
5 
5 
5 
5 
5 
5 
5 
5 
5 
5 
5 
5 
5 
5 
5 
5 
5 
5 
5 
5 
5 
5 
5 
5 
5 
5 
5 
5 
5 
5 
5 
5 
5 
5 
5 
5 
5 
5 
5 
5 
5 
5 
5 
5 
5 
5 
5 
5 
5 
5 
5 
5 
5 
5 
5 
5 
5 
5 
5 
5 
5 
5 
5 
5 
5 
5 
5 
5 
5 
5 
5 
5 
5 
5 
5 
5 
5 
5 
5 
5 
5 
5 
5 
5 
5 
5 
5 
5 
5 
5 
5 
5 
5 
5 
5 
5 
5 
5 
5 
5 
5 
5 
5 
5 
5 
5 
5 
5 
5 
5 
5 
5 
5 
5 
5 
5 
5 
5 
5 
5 
5 
5 
5 
5 
5 
5 
5 
5 
5 
5 
5 
5 
5 
5 
5 
5 
5 
5 
5 
5 
5 
5 
5 
5 
5 
5 
5 
5 
5 
5 
5 
5 
5 
5 
5 
5 
5 
5 
5 
5 
5 
5 
5 
POINT_DATA 295
SCALARS GMDS_ID int 1
LOOKUP_TABLE default
0 1 2 3 4 5 6 7 8 9 10 11 12 13 14 15 16 17 18 19 20 21 22 23 24 25 26 27 28 29 30 31 32 33 34 35 36 37 38 39 40 41 42 43 44 45 46 47 48 49 50 51 52 53 54 55 56 57 58 59 60 61 62 63 64 65 66 67 68 69 70 71 72 73 74 75 76 77 78 79 80 81 82 83 84 85 86 87 88 89 90 91 92 93 94 95 96 97 98 99 100 101 102 103 104 105 106 107 108 109 110 111 112 113 114 115 116 117 118 119 120 121 122 123 124 125 126 127 128 129 130 131 132 133 134 135 136 137 138 139 140 141 142 143 144 145 146 147 148 149 150 151 152 153 154 155 156 157 158 159 160 161 162 163 164 165 166 167 168 169 170 171 172 173 174 175 176 177 178 179 180 181 182 183 184 185 186 187 188 189 190 191 192 193 194 195 196 197 198 199 200 201 202 203 204 205 206 207 208 209 210 211 212 213 214 215 216 217 218 219 220 221 222 223 224 225 226 227 228 229 230 231 232 233 234 235 236 237 238 239 240 241 242 243 244 245 246 247 248 249 250 251 252 253 254 255 256 257 258 259 260 261 262 263 264 265 266 267 268 269 270 271 272 273 274 275 276 277 278 279 280 281 282 283 284 285 286 287 288 289 290 291 292 293 294 
SCALARS angle float 1
LOOKUP_TABLE default
0 0 0 0 0 0 0 0.314159 0 5.96903 0 0 5.96903 0 0.314159 0 -0 5.02655 3.76991 2.51327 1.25664 1.25664 2.51327 3.76991 5.02655 5.02655 3.76991 2.51327 1.25664 1.25664 2.51327 3.76991 5.02655 0 0 0 0 0 0 0 0 0 0 0 0 0 0 0 0 0 0 0 0 0 0 0 0 0 0 0 0 0 0 0 0 1.39626 2.79253 4.18879 5.58505 0.698132 2.0944 3.49066 4.88692 1.39626 2.79253 4.18879 5.58505 0.698132 2.0944 3.49066 4.88692 6.11996 6.11996 6.0345 6.0345 6.15225 6.15225 5.98702 5.98702 0.189428 0.189428 6.25158 6.25158 6.256 6.256 3.30674 3.30674 5.8842 5.8842 0.118263 0.118263 6.03743 6.03743 5.38493 5.38493 3.23701 3.23701 6.26016 6.26016 6.26422 6.26422 0.0434368 0.0434368 6.20846 6.20846 0.934426 0.934426 0.514873 0.514873 0.833607 0.833607 0.334764 0.334764 5.96481 5.96481 5.57003 5.57003 5.88455 5.88455 0.336153 0.336153 5.77695 5.77695 0.0625382 0.0625382 6.16918 6.16918 0.117436 0.117436 4.19336 4.19336 5.90665 5.90665 6.25734 6.25734 0.00422359 0.00422359 3.86561 3.86561 2.29783 2.29783 5.30905 5.30905 0.324144 0.324144 6.10667 6.10667 0.0323796 0.0323796 5.9682 5.9682 6.22291 6.22291 0.0360704 0.0360704 5.96744 5.96744 3.85567 3.85567 1.2054 1.2054 4.8997 4.8997 3.14979 3.14979 3.5137 3.5137 0.104069 0.104069 2.34266 2.34266 6.09437 6.09437 1.33178 1.33178 0.181349 0.181349 0.193915 0.193915 6.02504 6.02504 3.81185 3.81185 6.26756 6.26756 6.0644 6.0644 6.27709 6.27709 0.0264704 0.0264704 6.2362 6.2362 0.220749 0.220749 0.111349 0.111349 6.04089 6.04089 6.05463 6.05463 5.73823 5.73823 4.83894 4.83894 0.0197291 0.0197291 0.0626879 0.0626879 6.1767 6.1767 1.82005 1.82005 6.17912 6.17912 3.48756 3.48756 0.383207 0.383207 0.0883435 0.0883435 6.14637 6.14637 5.37761 5.37761 6.23507 6.23507 6.27864 6.27864 5.17003 5.17003 0.53946 0.53946 1.05387 1.05387 0.0121407 0.0121407 0.0493675 0.0493675 6.25767 6.25767 6.19557 6.19557 1.09394 1.09394 1.8559 1.8559 3.96874 3.96874 0.0500685 0.0500685 0.119153 0.119153 5.79942 5.79942 0.069628 0.069628 2.54451 2.54451 5.20961 5.20961 6.18922 6.18922 5.50723 5.50723 5.41628 5.41628 4.4264 4.4264 0.0664002 0.0664002 6.00466 6.00466 0.00389445 0.00389445 6.26495 6.26495 6.07682 6.07682 0.625008 0.625008 5.60529 5.60529 6.1762 6.1762 
VECTORS cross_X float
1 0 0 1 0 0 1 0 0 1 0 0 1 0 0 1 0 0 1 0 0 0.996917 0.0784591 0 1 0 0 0.0784591 0.996917 0 1 0 0 1 0 0 0.0784591 0.996917 0 1 0 0 0.996917 0.0784591 0 1 0 0 1 0 0 0.309017 0.951057 0 0.587785 0.809017 0 0.809017 0.587785 0 0.951057 0.309017 0 0.951057 0.309017 0 0.809017 0.587785 0 0.587785 0.809017 0 0.309017 0.951057 0 0.309017 0.951057 0 0.587785 0.809017 0 0.809017 0.587785 0 0.951057 0.309017 0 0.951057 0.309017 0 0.809017 0.587785 0 0.587785 0.809017 0 0.309017 0.951057 0 1 0 0 1 0 0 1 0 0 1 0 0 1 0 0 1 0 0 1 0 0 1 0 0 1 0 0 1 0 0 1 0 0 1 0 0 1 0 0 1 0 0 1 0 0 1 0 0 1 0 0 1 0 0 1 0 0 1 0 0 1 0 0 1 0 0 1 0 0 1 0 0 1 0 0 1 0 0 1 0 0 1 0 0 1 0 0 1 0 0 1 0 0 1 0 0 0.939693 0.34202 0 0.766044 0.642788 0 0.5 0.866025 0 0.173648 0.984808 0 0.984808 0.173648 0 0.866025 0.5 0 0.642788 0.766044 0 0.34202 0.939693 0 0.939693 0.34202 0 0.766044 0.642788 0 0.5 0.866025 0 0.173648 0.984808 0 0.984808 0.173648 0 0.866025 0.5 0 0.642788 0.766044 0 0.34202 0.939693 0 0.0407957 0.999168 0 0.0407957 0.999168 0 0.0621303 0.998068 0 0.0621303 0.998068 0 0.032727 0.999464 0 0.032727 0.999464 0 0.0739745 0.99726 0 0.0739745 0.99726 0 0.998879 0.0473394 0 0.998879 0.0473394 0 0.00790178 0.999969 0 0.00790178 0.999969 0 0.00679541 0.999977 0 0.00679541 0.999977 0 0.677318 0.735691 0 0.677318 0.735691 0 0.0995814 0.995029 0 0.0995814 0.995029 0 0.999563 0.0295615 0 0.999563 0.0295615 0 0.0614005 0.998113 0 0.0614005 0.998113 0 0.22268 0.974892 0 0.22268 0.974892 0 0.69004 0.723771 0 0.69004 0.723771 0 0.00575645 0.999983 0 0.00575645 0.999983 0 0.00474063 0.999989 0 0.00474063 0.999989 0 0.999941 0.010859 0 0.999941 0.010859 0 0.0186807 0.999826 0 0.0186807 0.999826 0 0.972838 0.231488 0 0.972838 0.231488 0 0.991727 0.128363 0 0.991727 0.128363 0 0.978363 0.206897 0 0.978363 0.206897 0 0.9965 0.0835932 0 0.9965 0.0835932 0 0.0795105 0.996834 0 0.0795105 0.996834 0 0.177345 0.984149 0 0.177345 0.984149 0 0.099494 0.995038 0 0.099494 0.995038 0 0.996471 0.0839393 0 0.996471 0.0839393 0 0.126222 0.992002 0 0.126222 0.992002 0 0.999878 0.0156339 0 0.999878 0.0156339 0 0.0284987 0.999594 0 0.0284987 0.999594 0 0.999569 0.0293549 0 0.999569 0.0293549 0 0.49901 0.866596 0 0.49901 0.866596 0 0.0939949 0.995573 0 0.0939949 0.995573 0 0.00646096 0.999979 0 0.00646096 0.999979 0 0.999999 0.0010559 0 0.999999 0.0010559 0 0.568264 0.822846 0 0.568264 0.822846 0 0.839487 0.543379 0 0.839487 0.543379 0 0.241135 0.970492 0 0.241135 0.970492 0 0.996718 0.0809474 0 0.996718 0.0809474 0 0.0441145 0.999026 0 0.0441145 0.999026 0 0.999967 0.00809481 0 0.999967 0.00809481 0 0.0786644 0.996901 0 0.0786644 0.996901 0 0.0150694 0.999886 0 0.0150694 0.999886 0 0.999959 0.00901747 0 0.999959 0.00901747 0 0.0788547 0.996886 0 0.0788547 0.996886 0 0.570306 0.821432 0 0.570306 0.821432 0 0.954937 0.29681 0 0.954937 0.29681 0 0.339017 0.94078 0 0.339017 0.94078 0 0.705656 0.708554 0 0.705656 0.708554 0 0.638364 0.769734 0 0.638364 0.769734 0 0.999662 0.0260144 0 0.999662 0.0260144 0 0.833345 0.552753 0 0.833345 0.552753 0 0.0471852 0.998886 0 0.0471852 0.998886 0 0.945084 0.326828 0 0.945084 0.326828 0 0.998972 0.0453218 0 0.998972 0.0453218 0 0.998825 0.0484598 0 0.998825 0.0484598 0 0.0644925 0.997918 0 0.0644925 0.997918 0 0.579271 0.815135 0 0.579271 0.815135 0 0.00390747 0.999992 0 0.00390747 0.999992 0 0.05467 0.998504 0 0.05467 0.998504 0 0.00152371 0.999999 0 0.00152371 0.999999 0 0.999978 0.00661754 0 0.999978 0.00661754 0 0.0117471 0.999931 0 0.0117471 0.999931 0 0.998478 0.0551592 0 0.998478 0.0551592 0 0.999613 0.0278337 0 0.999613 0.0278337 0 0.0605363 0.998166 0 0.0605363 0.998166 0 0.0571075 0.998368 0 0.0571075 0.998368 0 0.135817 0.990734 0 0.135817 0.990734 0 0.353267 0.935523 0 0.353267 0.935523 0 0.999988 0.00493226 0 0.999988 0.00493226 0 0.999877 0.0156713 0 0.999877 0.0156713 0 0.0266175 0.999646 0 0.0266175 0.999646 0 0.898256 0.439473 0 0.898256 0.439473 0 0.026013 0.999662 0 0.026013 0.999662 0 0.643381 0.765546 0 0.643381 0.765546 0 0.995415 0.0956554 0 0.995415 0.0956554 0 0.999756 0.0220841 0 0.999756 0.0220841 0 0.034198 0.999415 0 0.034198 0.999415 0 0.224466 0.974482 0 0.224466 0.974482 0 0.0120286 0.999928 0 0.0120286 0.999928 0 0.00113721 0.999999 0 0.00113721 0.999999 0 0.274711 0.961527 0 0.274711 0.961527 0 0.990919 0.134457 0 0.990919 0.134457 0 0.965493 0.26043 0 0.965493 0.26043 0 0.999995 0.00303517 0 0.999995 0.00303517 0 0.999924 0.0123416 0 0.999924 0.0123416 0 0.00637995 0.99998 0 0.00637995 0.99998 0 0.0219009 0.99976 0 0.0219009 0.99976 0 0.962836 0.270088 0 0.962836 0.270088 0 0.89428 0.447507 0 0.89428 0.447507 0 0.546861 0.837223 0 0.546861 0.837223 0 0.999922 0.0125168 0 0.999922 0.0125168 0 0.999556 0.0297838 0 0.999556 0.0297838 0 0.120647 0.992695 0 0.120647 0.992695 0 0.999849 0.0174061 0 0.999849 0.0174061 0 0.804403 0.594084 0 0.804403 0.594084 0 0.265183 0.964198 0 0.265183 0.964198 0 0.0234886 0.999724 0 0.0234886 0.999724 0 0.192774 0.981243 0 0.192774 0.981243 0 0.215034 0.976606 0 0.215034 0.976606 0 0.447703 0.894182 0 0.447703 0.894182 0 0.999862 0.0165993 0 0.999862 0.0165993 0 0.0695759 0.997577 0 0.0695759 0.997577 0 1 0.000973612 0 1 0.000973612 0 0.00455844 0.99999 0 0.00455844 0.99999 0 0.0515694 0.998669 0 0.0515694 0.998669 0 0.987817 0.155617 0 0.987817 0.155617 0 0.168664 0.985674 0 0.168664 0.985674 0 0.0267442 0.999642 0 0.0267442 0.999642 0 
VECTORS VY float
6.12323e-17 1 0 6.12323e-17 1 0 6.12323e-17 1 0 6.12323e-17 1 0 6.12323e-17 1 0 6.12323e-17 1 0 6.12323e-17 1 0 -0.0784591 0.996917 0 6.12323e-17 1 0 -0.996917 0.0784591 0 6.12323e-17 1 0 6.12323e-17 1 0 -0.996917 0.0784591 0 6.12323e-17 1 0 -0.0784591 0.996917 0 6.12323e-17 1 0 6.12323e-17 1 0 -0.951057 0.309017 0 -0.809017 0.587785 0 -0.587785 0.809017 0 -0.309017 0.951057 0 -0.309017 0.951057 0 -0.587785 0.809017 0 -0.809017 0.587785 0 -0.951057 0.309017 0 -0.951057 0.309017 0 -0.809017 0.587785 0 -0.587785 0.809017 0 -0.309017 0.951057 0 -0.309017 0.951057 0 -0.587785 0.809017 0 -0.809017 0.587785 0 -0.951057 0.309017 0 6.12323e-17 1 0 6.12323e-17 1 0 6.12323e-17 1 0 6.12323e-17 1 0 6.12323e-17 1 0 6.12323e-17 1 0 6.12323e-17 1 0 6.12323e-17 1 0 6.12323e-17 1 0 6.12323e-17 1 0 6.12323e-17 1 0 6.12323e-17 1 0 6.12323e-17 1 0 6.12323e-17 1 0 6.12323e-17 1 0 6.12323e-17 1 0 6.12323e-17 1 0 6.12323e-17 1 0 6.12323e-17 1 0 6.12323e-17 1 0 6.12323e-17 1 0 6.12323e-17 1 0 6.12323e-17 1 0 6.12323e-17 1 0 6.12323e-17 1 0 6.12323e-17 1 0 6.12323e-17 1 0 6.12323e-17 1 0 6.12323e-17 1 0 6.12323e-17 1 0 6.12323e-17 1 0 6.12323e-17 1 0 -0.34202 0.939693 0 -0.642788 0.766044 0 -0.866025 0.5 0 -0.984808 0.173648 0 -0.173648 0.984808 0 -0.5 0.866025 0 -0.766044 0.642788 0 -0.939693 0.34202 0 -0.34202 0.939693 0 -0.642788 0.766044 0 -0.866025 0.5 0 -0.984808 0.173648 0 -0.173648 0.984808 0 -0.5 0.866025 0 -0.766044 0.642788 0 -0.939693 0.34202 0 -0.999168 0.0407957 0 -0.999168 0.0407957 0 -0.998068 0.0621303 0 -0.998068 0.0621303 0 -0.999464 0.032727 0 -0.999464 0.032727 0 -0.99726 0.0739745 0 -0.99726 0.0739745 0 -0.0473394 0.998879 0 -0.0473394 0.998879 0 -0.999969 0.00790178 0 -0.999969 0.00790178 0 -0.999977 0.00679541 0 -0.999977 0.00679541 0 -0.735691 0.677318 0 -0.735691 0.677318 0 -0.995029 0.0995814 0 -0.995029 0.0995814 0 -0.0295615 0.999563 0 -0.0295615 0.999563 0 -0.998113 0.0614005 0 -0.998113 0.0614005 0 -0.974892 0.22268 0 -0.974892 0.22268 0 -0.723771 0.69004 0 -0.723771 0.69004 0 -0.999983 0.00575645 0 -0.999983 0.00575645 0 -0.999989 0.00474063 0 -0.999989 0.00474063 0 -0.010859 0.999941 0 -0.010859 0.999941 0 -0.999826 0.0186807 0 -0.999826 0.0186807 0 -0.231488 0.972838 0 -0.231488 0.972838 0 -0.128363 0.991727 0 -0.128363 0.991727 0 -0.206897 0.978363 0 -0.206897 0.978363 0 -0.0835932 0.9965 0 -0.0835932 0.9965 0 -0.996834 0.0795105 0 -0.996834 0.0795105 0 -0.984149 0.177345 0 -0.984149 0.177345 0 -0.995038 0.099494 0 -0.995038 0.099494 0 -0.0839393 0.996471 0 -0.0839393 0.996471 0 -0.992002 0.126222 0 -0.992002 0.126222 0 -0.0156339 0.999878 0 -0.0156339 0.999878 0 -0.999594 0.0284987 0 -0.999594 0.0284987 0 -0.0293549 0.999569 0 -0.0293549 0.999569 0 -0.866596 0.49901 0 -0.866596 0.49901 0 -0.995573 0.0939949 0 -0.995573 0.0939949 0 -0.999979 0.00646096 0 -0.999979 0.00646096 0 -0.0010559 0.999999 0 -0.0010559 0.999999 0 -0.822846 0.568264 0 -0.822846 0.568264 0 -0.543379 0.839487 0 -0.543379 0.839487 0 -0.970492 0.241135 0 -0.970492 0.241135 0 -0.0809474 0.996718 0 -0.0809474 0.996718 0 -0.999026 0.0441145 0 -0.999026 0.0441145 0 -0.00809481 0.999967 0 -0.00809481 0.999967 0 -0.996901 0.0786644 0 -0.996901 0.0786644 0 -0.999886 0.0150694 0 -0.999886 0.0150694 0 -0.00901747 0.999959 0 -0.00901747 0.999959 0 -0.996886 0.0788547 0 -0.996886 0.0788547 0 -0.821432 0.570306 0 -0.821432 0.570306 0 -0.29681 0.954937 0 -0.29681 0.954937 0 -0.94078 0.339017 0 -0.94078 0.339017 0 -0.708554 0.705656 0 -0.708554 0.705656 0 -0.769734 0.638364 0 -0.769734 0.638364 0 -0.0260144 0.999662 0 -0.0260144 0.999662 0 -0.552753 0.833345 0 -0.552753 0.833345 0 -0.998886 0.0471852 0 -0.998886 0.0471852 0 -0.326828 0.945084 0 -0.326828 0.945084 0 -0.0453218 0.998972 0 -0.0453218 0.998972 0 -0.0484598 0.998825 0 -0.0484598 0.998825 0 -0.997918 0.0644925 0 -0.997918 0.0644925 0 -0.815135 0.579271 0 -0.815135 0.579271 0 -0.999992 0.00390747 0 -0.999992 0.00390747 0 -0.998504 0.05467 0 -0.998504 0.05467 0 -0.999999 0.00152371 0 -0.999999 0.00152371 0 -0.00661754 0.999978 0 -0.00661754 0.999978 0 -0.999931 0.0117471 0 -0.999931 0.0117471 0 -0.0551592 0.998478 0 -0.0551592 0.998478 0 -0.0278337 0.999613 0 -0.0278337 0.999613 0 -0.998166 0.0605363 0 -0.998166 0.0605363 0 -0.998368 0.0571075 0 -0.998368 0.0571075 0 -0.990734 0.135817 0 -0.990734 0.135817 0 -0.935523 0.353267 0 -0.935523 0.353267 0 -0.00493226 0.999988 0 -0.00493226 0.999988 0 -0.0156713 0.999877 0 -0.0156713 0.999877 0 -0.999646 0.0266175 0 -0.999646 0.0266175 0 -0.439473 0.898256 0 -0.439473 0.898256 0 -0.999662 0.026013 0 -0.999662 0.026013 0 -0.765546 0.643381 0 -0.765546 0.643381 0 -0.0956554 0.995415 0 -0.0956554 0.995415 0 -0.0220841 0.999756 0 -0.0220841 0.999756 0 -0.999415 0.034198 0 -0.999415 0.034198 0 -0.974482 0.224466 0 -0.974482 0.224466 0 -0.999928 0.0120286 0 -0.999928 0.0120286 0 -0.999999 0.00113721 0 -0.999999 0.00113721 0 -0.961527 0.274711 0 -0.961527 0.274711 0 -0.134457 0.990919 0 -0.134457 0.990919 0 -0.26043 0.965493 0 -0.26043 0.965493 0 -0.00303517 0.999995 0 -0.00303517 0.999995 0 -0.0123416 0.999924 0 -0.0123416 0.999924 0 -0.99998 0.00637995 0 -0.99998 0.00637995 0 -0.99976 0.0219009 0 -0.99976 0.0219009 0 -0.270088 0.962836 0 -0.270088 0.962836 0 -0.447507 0.89428 0 -0.447507 0.89428 0 -0.837223 0.546861 0 -0.837223 0.546861 0 -0.0125168 0.999922 0 -0.0125168 0.999922 0 -0.0297838 0.999556 0 -0.0297838 0.999556 0 -0.992695 0.120647 0 -0.992695 0.120647 0 -0.0174061 0.999849 0 -0.0174061 0.999849 0 -0.594084 0.804403 0 -0.594084 0.804403 0 -0.964198 0.265183 0 -0.964198 0.265183 0 -0.999724 0.0234886 0 -0.999724 0.0234886 0 -0.981243 0.192774 0 -0.981243 0.192774 0 -0.976606 0.215034 0 -0.976606 0.215034 0 -0.894182 0.447703 0 -0.894182 0.447703 0 -0.0165993 0.999862 0 -0.0165993 0.999862 0 -0.997577 0.0695759 0 -0.997577 0.0695759 0 -0.000973612 1 0 -0.000973612 1 0 -0.99999 0.00455844 0 -0.99999 0.00455844 0 -0.998669 0.0515694 0 -0.998669 0.0515694 0 -0.155617 0.987817 0 -0.155617 0.987817 0 -0.985674 0.168664 0 -0.985674 0.168664 0 -0.999642 0.0267442 0 -0.999642 0.0267442 0 
VECTORS VXM float