# vtk DataFile Version 3.0
Generated by GMDS VTK Writer

ASCII
DATASET UNSTRUCTURED_GRID
POINTS 221 float
0 0 0
10 0 0
10 10 0
0 10 0
5 5 0
10 8 0
8 10 0
8 0 0
8 2 0
10 2 0
2 0 0
0 2 0
0 8 0
2 8 0
2 10 0
5 7 0
5 3 0
0.152241 8.76537 0
0.585786 9.41421 0
1.23463 9.84776 0
8.15224 9.23463 0
8.58579 8.58579 0
9.23463 8.15224 0
9.84776 1.23463 0
9.41421 0.585786 0
8.76537 0.152241 0
1.84776 0.765367 0
1.41421 1.41421 0
0.765367 1.84776 0
2.75 10 0
3.5 10 0
4.25 10 0
5 10 0
5.75 10 0
6.5 10 0
7.25 10 0
10 7.25 0
10 6.5 0
10 5.75 0
10 5 0
10 4.25 0
10 3.5 0
10 2.75 0
7.25 0 0
6.5 0 0
5.75 0 0
5 0 0
4.25 0 0
3.5 0 0
2.75 0 0
0 2.75 0
0 3.5 0
0 4.25 0
0 5 0
0 5.75 0
0 6.5 0
0 7.25 0
4.23463 6.84776 0
3.58579 6.41421 0
3.15224 5.76537 0
3 5 0
3.15224 4.23463 0
3.58579 3.58579 0
4.23463 3.15224 0
5.76537 3.15224 0
6.41421 3.58579 0
6.84776 4.23463 0
7 5 0
6.84776 5.76537 0
6.41421 6.41421 0
5.76537 6.84776 0
7.88794 2.12078 0
2.11206 7.87922 0
6.71087 8.28913 0
3.28913 1.71087 0
8.13296 6.52905 0
1.86704 3.47095 0
3.69841 8.42476 0
6.30159 1.57524 0
8.43405 3.66418 0
1.56595 6.33582 0
4.89153 8.44702 0
5.10847 1.55298 0
8.44702 4.89153 0
1.55298 5.10847 0
2.15998 2.15694 0
7.84002 7.84306 0
7.33408 1.07436 0
2.66592 8.92564 0
8.85897 2.6446 0
1.14103 7.3554 0
6.88476 2.54305 0
3.11524 7.45695 0
1.3332 8.59621 0
8.6668 1.40379 0
3.97562 0.971159 0
6.02438 9.02884 0
0.971159 3.97562 0
9.02884 6.02438 0
6.93658 7.26823 0
3.06342 2.73177 0
7.41619 3.42686 0
2.58381 6.57314 0
4.30911 8.96725 0
5.69089 1.03275 0
8.96858 4.30422 0
1.03142 5.69578 0
4.31788 7.76801 0
5.68212 2.23199 0
7.70341 4.57361 0
2.29659 5.42639 0
4.13108 2.23784 0
5.86892 7.76216 0
7.81707 5.8591 0
2.18293 4.1409 0
9.06508 7.23266 0
0.934917 2.76734 0
7.23266 9.06508 0
2.76734 0.934917 0
1.82503 9.14612 0
8.17497 0.853885 0
7.44349 6.62265 0
2.55651 3.37735 0
3.44804 9.15296 0
6.55196 0.847036 0
9.17305 3.43071 0
0.826948 6.56929 0
8.14606 2.95005 0
1.85394 7.04995 0
4.68535 0.745643 0
5.31465 9.25436 0
9.25452 5.31404 0
0.745477 4.68596 0
7.88715 8.65132 0
2.11285 1.34868 0
8.62611 7.87607 0
1.37389 2.12393 0
7.15353 1.85569 0
2.84647 8.14431 0
9.32869 2.02311 0
0.671313 7.97689 0
3.63841 7.19349 0
6.36159 2.80651 0
5.16152 7.69035 0
4.83848 2.30965 0
7.663 5.34909 0
2.337 4.65091 0
0.622373 3.38578 0
9.37763 6.61422 0
3.38578 0.622373 0
6.61422 9.37763 0
8.5552 2.08548 0
1.4448 7.91452 0
7.90848 1.44823 0
2.09152 8.55177 0
2.4384 9.50873 0
7.5616 0.491275 0
1.14025 9.16602 0
8.85975 0.833979 0
7.48038 2.63703 0
2.51962 7.36297 0
3.60089 2.86822 0
6.39911 7.13178 0
5.87899 8.37879 0
4.12101 1.62121 0
8.44931 5.78409 0
1.55069 4.21591 0
4.29899 8.40653 0
5.70101 1.59347 0
8.34474 4.27284 0
1.65526 5.72716 0
7.70893 7.1979 0
2.29107 2.8021 0
3.97781 9.49895 0
9.50953 3.98669 0
0.490466 6.01331 0
6.02219 0.501046 0
2.853 2.147 0
7.147 7.853 0
0.472417 2.375 0
9.52758 7.625 0
2.375 0.472417 0
7.625 9.52758 0
9.37989 2.90693 0
0.620105 7.09307 0
6.8644 3.186 0
3.1356 6.814 0
7.81691 3.86808 0
2.18309 6.13192 0
0.442443 5.375 0
9.55756 4.625 0
4.625 9.55756 0
5.375 0.442443 0
7.0455 0.511513 0
2.9545 9.48849 0
3.16471 8.66192 0
6.83529 1.33808 0
8.70215 3.16293 0
1.29785 6.83707 0
0.76114 8.79576 0
9.23886 1.20424 0
6.04065 9.53216 0
3.95935 0.467835 0
9.5322 6.04053 0
0.467802 3.95947 0
7.23503 8.47643 0
2.76497 1.52357 0
8.36247 7.20003 0
1.63753 2.79997 0
3.48314 7.82812 0
6.51686 2.17188 0
6.89985 6.70477 0
3.10015 3.29523 0
6.49024 7.78052 0
3.50976 2.21948 0
7.30585 6.087 0
2.69415 3.913 0
6.52144 8.80174 0
3.47856 1.19826 0
1.24518 3.44811 0
8.75482 6.55189 0

CELLS 364 1456
3 77 123 103 
3 78 124 104 
3 79 105 125 
3 80 106 126 
3 63 144 111 
3 70 143 112 
3 65 185 142 
3 58 186 141 
3 15 57 107 
3 66 67 109 
3 59 60 110 
3 16 64 108 
3 66 101 185 
3 59 102 186 
3 81 103 130 
3 82 104 129 
3 83 131 105 
3 84 132 106 
3 66 109 187 
3 59 110 188 
3 64 65 142 
3 57 58 141 
3 66 187 101 
3 59 188 102 
3 209 107 141 
3 210 108 142 
3 68 215 145 
3 61 216 146 
3 9 139 42 
3 12 140 56 
3 42 139 183 
3 56 140 184 
3 77 107 209 
3 78 108 210 
3 65 66 185 
3 58 59 186 
3 75 113 121 
3 76 114 122 
3 86 133 135 
3 85 134 136 
3 111 164 214 
3 112 163 213 
3 27 136 134 
3 21 135 133 
3 15 143 70 
3 16 144 63 
3 67 68 145 
3 60 61 146 
3 113 145 215 
3 114 146 216 
3 214 164 74 
3 213 163 73 
3 100 177 172 
3 99 178 171 
3 79 127 187 
3 80 128 188 
3 101 187 127 
3 102 188 128 
3 85 172 177 
3 86 171 178 
3 117 182 133 
3 118 181 134 
3 115 135 180 
3 116 136 179 
3 76 166 114 
3 75 165 113 
3 9 23 139 
3 12 17 140 
3 36 148 115 
3 50 147 116 
3 49 118 149 
3 35 117 150 
3 77 167 107 
3 78 168 108 
3 182 20 133 
3 181 26 134 
3 180 135 22 
3 179 136 28 
3 7 120 25 
3 14 119 19 
3 81 107 167 
3 82 108 168 
3 83 169 109 
3 84 170 110 
3 81 167 103 
3 82 168 104 
3 83 105 169 
3 84 106 170 
3 77 103 167 
3 78 104 168 
3 79 169 105 
3 80 170 106 
3 57 141 107 
3 64 142 108 
3 81 143 107 
3 82 144 108 
3 83 109 145 
3 84 110 146 
3 17 199 140 
3 23 200 139 
3 81 163 143 
3 82 164 144 
3 83 145 165 
3 84 146 166 
3 96 163 130 
3 95 164 129 
3 97 132 166 
3 98 131 165 
3 103 123 173 
3 104 124 176 
3 105 174 125 
3 106 175 126 
3 112 143 163 
3 111 144 164 
3 113 165 145 
3 114 166 146 
3 81 130 163 
3 82 129 164 
3 83 165 131 
3 84 166 132 
3 100 172 122 
3 99 171 121 
3 63 111 161 
3 70 112 162 
3 15 107 143 
3 16 108 144 
3 67 145 109 
3 60 146 110 
3 93 154 152 
3 94 153 151 
3 103 191 130 
3 105 131 190 
3 104 192 129 
3 106 132 189 
3 36 115 180 
3 50 116 179 
3 49 181 118 
3 35 182 117 
3 89 151 127 
3 90 152 128 
3 71 127 151 
3 72 128 152 
3 52 132 204 
3 38 131 203 
3 47 202 129 
3 33 201 130 
3 93 119 154 
3 94 120 153 
3 52 53 132 
3 38 39 131 
3 46 47 129 
3 32 33 130 
3 50 51 147 
3 36 37 148 
3 48 49 149 
3 34 35 150 
3 91 142 185 
3 92 141 186 
3 69 211 215 
3 62 212 216 
3 68 69 215 
3 61 62 216 
3 76 219 166 
3 75 220 165 
3 74 164 218 
3 73 163 217 
3 97 204 132 
3 98 203 131 
3 95 129 202 
3 96 130 201 
3 71 151 153 
3 72 152 154 
3 25 120 158 
3 19 119 157 
3 101 127 159 
3 102 128 160 
3 62 161 212 
3 69 162 211 
3 101 159 185 
3 102 160 186 
3 41 183 125 
3 55 184 126 
3 62 63 161 
3 69 70 162 
3 86 205 133 
3 85 206 134 
3 86 135 207 
3 85 136 208 
3 85 208 172 
3 86 207 171 
3 89 183 139 
3 90 184 140 
3 87 137 153 
3 88 138 154 
3 85 177 206 
3 86 178 205 
3 71 153 137 
3 72 154 138 
3 7 156 120 
3 14 155 119 
3 21 22 135 
3 27 28 136 
3 20 21 133 
3 26 27 134 
3 87 120 156 
3 88 119 155 
3 87 153 120 
3 88 154 119 
3 55 56 184 
3 41 42 183 
3 113 215 121 
3 114 216 122 
3 100 122 212 
3 99 121 211 
3 91 185 159 
3 92 186 160 
3 71 137 159 
3 72 138 160 
3 93 157 119 
3 94 158 120 
3 91 159 137 
3 92 160 138 
3 30 123 194 
3 44 124 193 
3 77 138 195 
3 78 137 196 
3 209 138 77 
3 210 137 78 
3 93 140 199 
3 94 139 200 
3 75 121 171 
3 76 122 172 
3 30 173 123 
3 44 176 124 
3 41 125 174 
3 55 126 175 
3 87 193 124 
3 88 194 123 
3 88 123 195 
3 87 124 196 
3 77 195 123 
3 78 196 124 
3 79 125 197 
3 80 126 198 
3 100 212 161 
3 99 211 162 
3 43 44 193 
3 29 30 194 
3 71 159 127 
3 72 160 128 
3 32 130 191 
3 46 129 192 
3 39 190 131 
3 53 189 132 
3 89 127 197 
3 90 128 198 
3 117 205 217 
3 118 206 218 
3 115 220 207 
3 116 219 208 
3 79 197 127 
3 80 198 128 
3 89 139 151 
3 90 140 152 
3 125 183 197 
3 126 184 198 
3 89 197 183 
3 90 198 184 
3 97 166 219 
3 95 218 164 
3 96 217 163 
3 98 165 220 
3 94 151 139 
3 93 152 140 
3 7 43 156 
3 14 29 155 
3 30 31 173 
3 44 45 176 
3 40 41 174 
3 54 55 175 
3 18 19 157 
3 24 25 158 
3 11 179 28 
3 5 180 22 
3 10 26 181 
3 6 20 182 
3 91 137 210 
3 92 138 209 
3 87 196 137 
3 88 195 138 
3 116 147 219 
3 115 148 220 
3 118 218 149 
3 117 217 150 
3 11 50 179 
3 5 36 180 
3 10 181 49 
3 6 182 35 
3 121 215 211 
3 122 216 212 
3 117 133 205 
3 118 134 206 
3 115 207 135 
3 116 208 136 
3 31 32 191 
3 53 54 189 
3 39 40 190 
3 45 46 192 
3 73 217 205 
3 74 218 206 
3 75 207 220 
3 76 208 219 
3 17 18 199 
3 23 24 200 
3 37 38 203 
3 33 34 201 
3 47 48 202 
3 51 52 204 
3 79 187 169 
3 80 188 170 
3 109 169 187 
3 110 170 188 
3 87 156 193 
3 88 155 194 
3 54 175 189 
3 40 174 190 
3 45 192 176 
3 31 191 173 
3 92 209 141 
3 91 210 142 
3 106 189 175 
3 105 190 174 
3 104 176 192 
3 103 173 191 
3 75 171 207 
3 76 172 208 
3 111 214 161 
3 112 213 162 
3 97 147 204 
3 98 148 203 
3 95 202 149 
3 96 201 150 
3 34 150 201 
3 48 149 202 
3 51 204 147 
3 37 203 148 
3 73 205 178 
3 74 206 177 
3 43 193 156 
3 29 194 155 
3 97 219 147 
3 95 149 218 
3 98 220 148 
3 96 150 217 
3 18 157 199 
3 24 158 200 
3 93 199 157 
3 94 200 158 
3 73 178 213 
3 74 177 214 
3 99 213 178 
3 100 214 177 
3 100 161 214 
3 99 162 213 

CELL_TYPES 364
5 
5 
5 
5 
5 
5 
5 
5 
5 
5 
5 
5 
5 
5 
5 
5 
5 
5 
5 
5 
5 
5 
5 
5 
5 
5 
5 
5 
5 
5 
5 
5 
5 
5 
5 
5 
5 
5 
5 
5 
5 
5 
5 
5 
5 
5 
5 
5 
5 
5 
5 
5 
5 
5 
5 
5 
5 
5 
5 
5 
5 
5 
5 
5 
5 
5 
5 
5 
5 
5 
5 
5 
5 
5 
5 
5 
5 
5 
5 
5 
5 
5 
5 
5 
5 
5 
5 
5 
5 
5 
5 
5 
5 
5 
5 
5 
5 
5 
5 
5 
5 
5 
5 
5 
5 
5 
5 
5 
5 
5 
5 
5 
5 
5 
5 
5 
5 
5 
5 
5 
5 
5 
5 
5 
5 
5 
5 
5 
5 
5 
5 
5 
5 
5 
5 
5 
5 
5 
5 
5 
5 
5 
5 
5 
5 
5 
5 
5 
5 
5 
5 
5 
5 
5 
5 
5 
5 
5 
5 
5 
5 
5 
5 
5 
5 
5 
5 
5 
5 
5 
5 
5 
5 
5 
5 
5 
5 
5 
5 
5 
5 
5 
5 
5 
5 
5 
5 
5 
5 
5 
5 
5 
5 
5 
5 
5 
5 
5 
5 
5 
5 
5 
5 
5 
5 
5 
5 
5 
5 
5 
5 
5 
5 
5 
5 
5 
5 
5 
5 
5 
5 
5 
5 
5 
5 
5 
5 
5 
5 
5 
5 
5 
5 
5 
5 
5 
5 
5 
5 
5 
5 
5 
5 
5 
5 
5 
5 
5 
5 
5 
5 
5 
5 
5 
5 
5 
5 
5 
5 
5 
5 
5 
5 
5 
5 
5 
5 
5 
5 
5 
5 
5 
5 
5 
5 
5 
5 
5 
5 
5 
5 
5 
5 
5 
5 
5 
5 
5 
5 
5 
5 
5 
5 
5 
5 
5 
5 
5 
5 
5 
5 
5 
5 
5 
5 
5 
5 
5 
5 
5 
5 
5 
5 
5 
5 
5 
5 
5 
5 
5 
5 
5 
5 
5 
5 
5 
5 
5 
5 
5 
5 
5 
5 
5 
5 
5 
5 
5 
5 
5 
5 
5 
5 
5 
5 
5 
5 
5 
5 
5 
5 
5 
5 
5 
5 
5 
5 
5 
5 
5 
5 
5 
5 
5 
POINT_DATA 221
SCALARS GMDS_ID int 1
LOOKUP_TABLE default
0 1 2 3 4 5 6 7 8 9 10 11 12 13 14 15 16 17 18 19 20 21 22 23 24 25 26 27 28 29 30 31 32 33 34 35 36 37 38 39 40 41 42 43 44 45 46 47 48 49 50 51 52 53 54 55 56 57 58 59 60 61 62 63 64 65 66 67 68 69 70 71 72 73 74 75 76 77 78 79 80 81 82 83 84 85 86 87 88 89 90 91 92 93 94 95 96 97 98 99 100 101 102 103 104 105 106 107 108 109 110 111 112 113 114 115 116 117 118 119 120 121 122 123 124 125 126 127 128 129 130 131 132 133 134 135 136 137 138 139 140 141 142 143 144 145 146 147 148 149 150 151 152 153 154 155 156 157 158 159 160 161 162 163 164 165 166 167 168 169 170 171 172 173 174 175 176 177 178 179 180 181 182 183 184 185 186 187 188 189 190 191 192 193 194 195 196 197 198 199 200 201 202 203 204 205 206 207 208 209 210 211 212 213 214 215 216 217 218 219 220 
SCALARS angle float 1
LOOKUP_TABLE default
0 0 0 0 0 0 0 0.392699 0 5.89049 0 0 5.89049 0 0.392699 -0 0 4.71239 3.14159 1.5708 1.5708 3.14159 4.71239 4.71239 3.14159 1.5708 1.5708 3.14159 4.71239 0 0 0 0 0 0 0 0 0 0 0 0 0 0 0 0 0 0 0 0 0 0 0 0 0 0 0 0 1.5708 3.14159 4.71239 6.28319 1.5708 3.14159 4.71239 1.5708 3.14159 4.71239 6.28319 1.5708 3.14159 4.71239 0.146427 0.146427 6.04612 6.04612 0.732679 0.732679 0.266259 0.266259 6.11098 6.11098 0.0072864 0.0072864 0.0536698 0.0536698 3.00044 3.00044 0.13683 0.13683 6.19279 6.19279 1.7662 1.7662 0.0842999 0.0842999 6.22612 6.22612 0.11353 0.11353 3.40405 3.40405 4.29206 4.29206 0.0623075 0.0623075 6.253 6.253 0.269708 0.269708 6.2454 6.2454 5.55173 5.55173 0.788569 0.788569 6.04703 6.04703 0.321379 0.321379 0.277734 0.277734 2.0256 2.0256 0.078472 0.078472 6.23978 6.23978 6.10741 6.10741 6.27169 6.27169 0.0464876 0.0464876 2.14575 2.14575 4.08059 4.08059 0.444871 0.444871 5.75591 5.75591 1.65909 1.65909 6.21658 6.21658 0.246119 0.246119 0.00314849 0.00314849 0.0277187 0.0277187 6.2031 6.2031 0.192318 0.192318 0.0604098 0.0604098 3.10557 3.10557 0.75347 0.75347 3.92653 3.92653 6.03545 6.03545 0.305173 0.305173 0.134615 0.134615 6.18088 6.18088 2.51153 2.51153 0.0303372 6.26728 6.26728 0.0303372 3.31071 3.31071 6.25733 6.25733 0.0367411 0.0367411 6.25028 6.25028 2.94222 2.94222 5.62149 5.62149 6.28246 6.28246 0.0148765 0.0148765 0.0457971 0.0457971 0.193739 0.193739 6.18658 6.18658 3.19456 3.19456 6.27231 6.27231 0.0354851 0.0354851 1.28016 1.28016 5.34254 5.34254 0.90158 0.90158 2.96414 2.96414 4.7734 4.7734 1.55552 1.55552 6.26229 6.26229 0.131896 0.131896 
VECTORS cross_X float
1 0 0 1 0 0 1 0 0 1 0 0 1 0 0 1 0 0 1 0 0 0.995185 0.0980171 0 1 0 0 0.0980171 0.995185 0 1 0 0 1 0 0 0.0980171 0.995185 0 1 0 0 0.995185 0.0980171 0 1 0 0 1 0 0 0.382683 0.92388 0 0.707107 0.707107 0 0.92388 0.382683 0 0.92388 0.382683 0 0.707107 0.707107 0 0.382683 0.92388 0 0.382683 0.92388 0 0.707107 0.707107 0 0.92388 0.382683 0 0.92388 0.382683 0 0.707107 0.707107 0 0.382683 0.92388 0 1 0 0 1 0 0 1 0 0 1 0 0 1 0 0 1 0 0 1 0 0 1 0 0 1 0 0 1 0 0 1 0 0 1 0 0 1 0 0 1 0 0 1 0 0 1 0 0 1 0 0 1 0 0 1 0 0 1 0 0 1 0 0 1 0 0 1 0 0 1 0 0 1 0 0 1 0 0 1 0 0 1 0 0 0.92388 0.382683 0 0.707107 0.707107 0 0.382683 0.92388 0 3.82012e-12 1 0 0.92388 0.382683 0 0.707107 0.707107 0 0.382683 0.92388 0 0.92388 0.382683 0 0.707107 0.707107 0 0.382683 0.92388 0 3.7988e-12 1 0 0.92388 0.382683 0 0.707107 0.707107 0 0.382683 0.92388 0 0.99933 0.0365987 0 0.99933 0.0365987 0 0.0592318 0.998244 0 0.0592318 0.998244 0 0.983271 0.182147 0 0.983271 0.182147 0 0.997785 0.0665157 0 0.997785 0.0665157 0 0.0430384 0.999073 0 0.0430384 0.999073 0 0.999998 0.0018216 0 0.999998 0.0018216 0 0.99991 0.013417 0 0.99991 0.013417 0 0.731614 0.681719 0 0.731614 0.681719 0 0.999415 0.0342008 0 0.999415 0.0342008 0 0.022597 0.999745 0 0.022597 0.999745 0 0.904091 0.427341 0 0.904091 0.427341 0 0.999778 0.0210734 0 0.999778 0.0210734 0 0.0142647 0.999898 0 0.0142647 0.999898 0 0.999597 0.0283786 0 0.999597 0.0283786 0 0.659222 0.751948 0 0.659222 0.751948 0 0.477477 0.878644 0 0.477477 0.878644 0 0.999879 0.0155763 0 0.999879 0.0155763 0 0.00754509 0.999972 0 0.00754509 0.999972 0 0.997728 0.0673759 0 0.997728 0.0673759 0 0.00944557 0.999955 0 0.00944557 0.999955 0 0.181847 0.983327 0 0.181847 0.983327 0 0.98063 0.195868 0 0.98063 0.195868 0 0.0590037 0.998258 0 0.0590037 0.998258 0 0.996774 0.0802583 0 0.996774 0.0802583 0 0.99759 0.0693778 0 0.99759 0.0693778 0 0.874497 0.485031 0 0.874497 0.485031 0 0.999808 0.0196167 0 0.999808 0.0196167 0 0.0108514 0.999941 0 0.0108514 0.999941 0 0.0439297 0.999035 0 0.0439297 0.999035 0 0.00287461 0.999996 0 0.00287461 0.999996 0 0.999932 0.0116216 0 0.999932 0.0116216 0 0.859535 0.511077 0 0.859535 0.511077 0 0.523241 0.852185 0 0.523241 0.852185 0 0.993822 0.110989 0 0.993822 0.110989 0 0.131437 0.991325 0 0.131437 0.991325 0 0.915208 0.402983 0 0.915208 0.402983 0 0.0166498 0.999861 0 0.0166498 0.999861 0 0.998108 0.061491 0 0.998108 0.061491 0 1 0.000787123 0 1 0.000787123 0 0.999976 0.00692963 0 0.999976 0.00692963 0 0.0200193 0.9998 0 0.0200193 0.9998 0 0.998844 0.0480609 0 0.998844 0.0480609 0 0.999886 0.0151019 0 0.999886 0.0151019 0 0.713447 0.70071 0 0.713447 0.70071 0 0.982311 0.187255 0 0.982311 0.187255 0 0.555666 0.831405 0 0.555666 0.831405 0 0.0618952 0.998083 0 0.0618952 0.998083 0 0.997091 0.0762192 0 0.997091 0.0762192 0 0.999434 0.0336473 0 0.999434 0.0336473 0 0.0255735 0.999673 0 0.0255735 0.999673 0 0.809273 0.587433 0 0.809273 0.587433 0 0.999971 0.00758424 0 0.0039758 0.999992 0 0.0039758 0.999992 0 0.999971 0.00758424 0 0.676589 0.736361 0 0.676589 0.736361 0 0.00646494 0.999979 0 0.00646494 0.999979 0 0.999958 0.00918515 0 0.999958 0.00918515 0 0.00822726 0.999966 0 0.00822726 0.999966 0 0.741458 0.670999 0 0.741458 0.670999 0 0.164671 0.986349 0 0.164671 0.986349 0 0.000180472 1 0 0.000180472 1 0 0.999993 0.00371912 0 0.999993 0.00371912 0 0.999934 0.011449 0 0.999934 0.011449 0 0.998827 0.0484157 0 0.998827 0.0484157 0 0.0241499 0.999708 0 0.0241499 0.999708 0 0.697681 0.716408 0 0.697681 0.716408 0 0.00271987 0.999996 0 0.00271987 0.999996 0 0.999961 0.00887115 0 0.999961 0.00887115 0 0.949222 0.314606 0 0.949222 0.314606 0 0.233 0.972477 0 0.233 0.972477 0 0.974706 0.223491 0 0.974706 0.223491 0 0.737771 0.675051 0 0.737771 0.675051 0 0.368547 0.929609 0 0.368547 0.929609 0 0.925334 0.379153 0 0.925334 0.379153 0 0.00522444 0.999986 0 0.00522444 0.999986 0 0.999456 0.032968 0 0.999456 0.032968 0 
VECTORS VY float
6.12323e-17 1 0 6.12323e-17 1 0 6.12323e-17 1 0 6.12323e-17 1 0 6.12323e-17 1 0 6.12323e-17 1 0 6.12323e-17 1 0 -0.0980171 0.995185 0 6.12323e-17 1 0 -0.995185 0.0980171 0 6.12323e-17 1 0 6.12323e-17 1 0 -0.995185 0.0980171 0 6.12323e-17 1 0 -0.0980171 0.995185 0 6.12323e-17 1 0 6.12323e-17 1 0 -0.92388 0.382683 0 -0.707107 0.707107 0 -0.382683 0.92388 0 -0.382683 0.92388 0 -0.707107 0.707107 0 -0.92388 0.382683 0 -0.92388 0.382683 0 -0.707107 0.707107 0 -0.382683 0.92388 0 -0.382683 0.92388 0 -0.707107 0.707107 0 -0.92388 0.382683 0 6.12323e-17 1 0 6.12323e-17 1 0 6.12323e-17 1 0 6.12323e-17 1 0 6.12323e-17 1 0 6.12323e-17 1 0 6.12323e-17 1 0 6.12323e-17 1 0 6.12323e-17 1 0 6.12323e-17 1 0 6.12323e-17 1 0 6.12323e-17 1 0 6.12323e-17 1 0 6.12323e-17 1 0 6.12323e-17 1 0 6.12323e-17 1 0 6.12323e-17 1 0 6.12323e-17 1 0 6.12323e-17 1 0 6.12323e-17 1 0 6.12323e-17 1 0 6.12323e-17 1 0 6.12323e-17 1 0 6.12323e-17 1 0 6.12323e-17 1 0 6.12323e-17 1 0 6.12323e-17 1 0 6.12323e-17 1 0 -0.382683 0.92388 0 -0.707107 0.707107 0 -0.92388 0.382683 0 -1 3.82018e-12 0 -0.382683 0.92388 0 -0.707107 0.707107 0 -0.92388 0.382683 0 -0.382683 0.92388 0 -0.707107 0.707107 0 -0.92388 0.382683 0 -1 3.79886e-12 0 -0.382683 0.92388 0 -0.707107 0.707107 0 -0.92388 0.382683 0 -0.0365987 0.99933 0 -0.0365987 0.99933 0 -0.998244 0.0592318 0 -0.998244 0.0592318 0 -0.182147 0.983271 0 -0.182147 0.983271 0 -0.0665157 0.997785 0 -0.0665157 0.997785 0 -0.999073 0.0430384 0 -0.999073 0.0430384 0 -0.0018216 0.999998 0 -0.0018216 0.999998 0 -0.013417 0.99991 0 -0.013417 0.99991 0 -0.681719 0.731614 0 -0.681719 0.731614 0 -0.0342008 0.999415 0 -0.0342008 0.999415 0 -0.999745 0.022597 0 -0.999745 0.022597 0 -0.427341 0.904091 0 -0.427341 0.904091 0 -0.0210734 0.999778 0 -0.0210734 0.999778 0 -0.999898 0.0142647 0 -0.999898 0.0142647 0 -0.0283786 0.999597 0 -0.0283786 0.999597 0 -0.751948 0.659222 0 -0.751948 0.659222 0 -0.878644 0.477477 0 -0.878644 0.477477 0 -0.0155763 0.999879 0 -0.0155763 0.999879 0 -0.999972 0.00754509 0 -0.999972 0.00754509 0 -0.0673759 0.997728 0 -0.0673759 0.997728 0 -0.999955 0.00944557 0 -0.999955 0.00944557 0 -0.983327 0.181847 0 -0.983327 0.181847 0 -0.195868 0.98063 0 -0.195868 0.98063 0 -0.998258 0.0590037 0 -0.998258 0.0590037 0 -0.0802583 0.996774 0 -0.0802583 0.996774 0 -0.0693778 0.99759 0 -0.0693778 0.99759 0 -0.485031 0.874497 0 -0.485031 0.874497 0 -0.0196167 0.999808 0 -0.0196167 0.999808 0 -0.999941 0.0108514 0 -0.999941 0.0108514 0 -0.999035 0.0439297 0 -0.999035 0.0439297 0 -0.999996 0.00287461 0 -0.999996 0.00287461 0 -0.0116216 0.999932 0 -0.0116216 0.999932 0 -0.511077 0.859535 0 -0.511077 0.859535 0 -0.852185 0.523241 0 -0.852185 0.523241 0 -0.110989 0.993822 0 -0.110989 0.993822 0 -0.991325 0.131437 0 -0.991325 0.131437 0 -0.402983 0.915208 0 -0.402983 0.915208 0 -0.999861 0.0166498 0 -0.999861 0.0166498 0 -0.061491 0.998108 0 -0.061491 0.998108 0 -0.000787123 1 0 -0.000787123 1 0 -0.00692963 0.999976 0 -0.00692963 0.999976 0 -0.9998 0.0200193 0 -0.9998 0.0200193 0 -0.0480609 0.998844 0 -0.0480609 0.998844 0 -0.0151019 0.999886 0 -0.0151019 0.999886 0 -0.70071 0.713447 0 -0.70071 0.713447 0 -0.187255 0.982311 0 -0.187255 0.982311 0 -0.831405 0.555666 0 -0.831405 0.555666 0 -0.998083 0.0618952 0 -0.998083 0.0618952 0 -0.0762192 0.997091 0 -0.0762192 0.997091 0 -0.0336473 0.999434 0 -0.0336473 0.999434 0 -0.999673 0.0255735 0 -0.999673 0.0255735 0 -0.587433 0.809273 0 -0.587433 0.809273 0 -0.00758424 0.999971 0 -0.999992 0.0039758 0 -0.999992 0.0039758 0 -0.00758424 0.999971 0 -0.736361 0.676589 0 -0.736361 0.676589 0 -0.999979 0.00646494 0 -0.999979 0.00646494 0 -0.00918515 0.999958 0 -0.00918515 0.999958 0 -0.999966 0.00822726 0 -0.999966 0.00822726 0 -0.670999 0.741458 0 -0.670999 0.741458 0 -0.986349 0.164671 0 -0.986349 0.164671 0 -1 0.000180472 0 -1 0.000180472 0 -0.00371912 0.999993 0 -0.00371912 0.999993 0 -0.011449 0.999934 0 -0.011449 0.999934 0 -0.0484157 0.998827 0 -0.0484157 0.998827 0 -0.999708 0.0241499 0 -0.999708 0.0241499 0 -0.716408 0.697681 0 -0.716408 0.697681 0 -0.999996 0.00271987 0 -0.999996 0.00271987 0 -0.00887115 0.999961 0 -0.00887115 0.999961 0 -0.314606 0.949222 0 -0.314606 0.949222 0 -0.972477 0.233 0 -0.972477 0.233 0 -0.223491 0.974706 0 -0.223491 0.974706 0 -0.675051 0.737771 0 -0.675051 0.737771 0 -0.929609 0.368547 0 -0.929609 0.368547 0 -0.379153 0.925334 0 -0.379153 0.925334 0 -0.999986 0.00522444 0 -0.999986 0.00522444 0 -0.032968 0.999456 0 -0.032968 0.999456 0 
VECTORS VXM float
-1 1.22465e-16 0 -1 1.22465e-16 0 -1 1.22465e-16 0 -1 1.22465e-16 0 -1 1.22465e-16 0 -1 1.22465e-16 0 -1 1.22465e-16 0 -0.995185 -0.0980171 0 -1 1.22465e-16 0 -0.0980171 -0.995185 0 -1 1.22465e-16 0 -1 1.22465e-16 0 -0.0980171 -0.995185 0 -1 1.22465e-16 0 -0.995185 -0.0980171 0 -1 1.22465e-16 0 -1 1.22465e-16 0 -0.382683 -0.92388 0 -0.707107 -0.707107 0 -0.92388 -0.382683 0 -0.92388 -0.382683 0 -0.707107 -0.707107 0 -0.382683 -0.92388 0 -0.382683 -0.92388 0 -0.707107 -0.707107 0 -0.92388 -0.382683 0 -0.92388 -0.382683 0 -0.707107 -0.707107 0 -0.382683 -0.92388 0 -1 1.22465e-16 0 -1 1.22465e-16 0 -1 1.22465e-16 0 -1 1.22465e-16 0 -1 1.22465e-16 0 -1 1.22465e-16 0 -1 1.22465e-16 0 -1 1.22465e-16 0 -1 1.22465e-16 0 -1 1.22465e-16 0 -1 1.22465e-16 0 -1 1.22465e-16 0 -1 1.22465e-16 0 -1 1.22465e-16 0 -1 1.22465e-16 0 -1 1.22465e-16 0 -1 1.22465e-16 0 -1 1.22465e-16 0 -1 1.22465e-16 0 -1 1.22465e-16 0 -1 1.22465e-16 0 -1 1.22465e-16 0 -1 1.22465e-16 0 -1 1.22465e-16 0 -1 1.22465e-16 0 -1 1.22465e-16 0 -1 1.22465e-16 0 -1 1.22465e-16 0 -0.92388 -0.382683 0 -0.707107 -0.707107 0 -0.382683 -0.92388 0 -3.82024e-12 -1 0 -0.92388 -0.382683 0 -0.707107 -0.707107 0 -0.382683 -0.92388 0 -0.92388 -0.382683 0 -0.707107 -0.707107 0 -0.382683 -0.92388 0 -3.79892e-12 -1 0 -0.92388 -0.382683 0 -0.707107 -0.707107 0 -0.382683 -0.92388 0 -0.99933 -0.0365987 0 -0.99933 -0.0365987 0 -0.0592318 -0.998244 0 -0.0592318 -0.998244 0 -0.983271 -0.182147 0 -0.983271 -0.182147 0 -0.997785 -0.0665157 0 -0.997785 -0.0665157 0 -0.0430384 -0.999073 0 -0.0430384 -0.999073 0 -0.999998 -0.0018216 0 -0.999998 -0.0018216 0 -0.99991 -0.013417 0 -0.99991 -0.013417 0 -0.731614 -0.681719 0 -0.731614 -0.681719 0 -0.999415 -0.0342008 0 -0.999415 -0.0342008 0 -0.022597 -0.999745 0 -0.022597 -0.999745 0 -0.904091 -0.427341 0 -0.904091 -0.427341 0 -0.999778 -0.0210734 0 -0.999778 -0.0210734 0 -0.0142647 -0.999898 0 -0.0142647 -0.999898 0 -0.999597 -0.0283786 0 -0.999597 -0.0283786 0 -0.659222 -0.751948 0 -0.659222 -0.751948 0 -0.477477 -0.878644 0 -0.477477 -0.878644 0 -0.999879 -0.0155763 0 -0.999879 -0.0155763 0 -0.00754509 -0.999972 0 -0.00754509 -0.999972 0 -0.997728 -0.0673759 0 -0.997728 -0.0673759 0 -0.00944557 -0.999955 0 -0.00944557 -0.999955 0 -0.181847 -0.983327 0 -0.181847 -0.983327 0 -0.98063 -0.195868 0 -0.98063 -0.195868 0 -0.0590037 -0.998258 0 -0.0590037 -0.998258 0 -0.996774 -0.0802583 0 -0.996774 -0.0802583 0 -0.99759 -0.0693778 0 -0.99759 -0.0693778 0 -0.874497 -0.485031 0 -0.874497 -0.485031 0 -0.999808 -0.0196167 0 -0.999808 -0.0196167 0 -0.0108514 -0.999941 0 -0.0108514 -0.999941 0 -0.0439297 -0.999035 0 -0.0439297 -0.999035 0 -0.00287461 -0.999996 0 -0.00287461 -0.999996 0 -0.999932 -0.0116216 0 -0.999932 -0.0116216 0 -0.859535 -0.511077 0 -0.859535 -0.511077 0 -0.523241 -0.852185 0 -0.523241 -0.852185 0 -0.993822 -0.110989 0 -0.993822 -0.110989 0 -0.131437 -0.991325 0 -0.131437 -0.991325 0 -0.915208 -0.402983 0 -0.915208 -0.402983 0 -0.0166498 -0.999861 0 -0.0166498 -0.999861 0 -0.998108 -0.061491 0 -0.998108 -0.061491 0 -1 -0.000787123 0 -1 -0.000787123 0 -0.999976 -0.00692963 0 -0.999976 -0.00692963 0 -0.0200193 -0.9998 0 -0.0200193 -0.9998 0 -0.998844 -0.0480609 0 -0.998844 -0.0480609 0 -0.999886 -0.0151019 0 -0.999886 -0.0151019 0 -0.713447 -0.70071 0 -0.713447 -0.70071 0 -0.982311 -0.187255 0 -0.982311 -0.187255 0 -0.555666 -0.831405 0 -0.555666 -0.831405 0 -0.0618952 -0.998083 0 -0.0618952 -0.998083 0 -0.997091 -0.0762192 0 -0.997091 -0.0762192 0 -0.999434 -0.0336473 0 -0.999434 -0.0336473 0 -0.0255735 -0.999673 0 -0.0255735 -0.999673 0 -0.809273 -0.587433 0 -0.809273 -0.587433 0 -0.999971 -0.00758424 0 -0.0039758 -0.999992 0 -0.0039758 -0.999992 0 -0.999971 -0.00758424 0 -0.676589 -0.736361 0 -0.676589 -0.736361 0 -0.00646494 -0.999979 0 -0.00646494 -0.999979 0 -0.999958 -0.00918515 0 -0.999958 -0.00918515 0 -0.00822726 -0.999966 0 -0.00822726 -0.999966 0 -0.741458 -0.670999 0 -0.741458 -0.670999 0 -0.164671 -0.986349 0 -0.164671 -0.986349 0 -0.000180472 -1 0 -0.000180472 -1 0 -0.999993 -0.00371912 0 -0.999993 -0.00371912 0 -0.999934 -0.011449 0 -0.999934 -0.011449 0 -0.998827 -0.0484157 0 -0.998827 -0.0484157 0 -0.0241499 -0.999708 0 -0.0241499 -0.999708 0 -0.697681 -0.716408 0 -0.697681 -0.716408 0 -0.00271987 -0.999996 0 -0.00271987 -0.999996 0 -0.999961 -0.00887115 0 -0.999961 -0.00887115 0 -0.949222 -0.314606 0 -0.949222 -0.314606 0 -0.233 -0.972477 0 -0.233 -0.972477 0 -0.974706 -0.223491 0 -0.974706 -0.223491 0 -0.737771 -0.675051 0 -0.737771 -0.675051 0 -0.368547 -0.929609 0 -0.368547 -0.929609 0 -0.925334 -0.379153 0 -0.925334 -0.379153 0 -0.00522444 -0.999986 0 -0.00522444 -0.999986 0 -0.999456 -0.032968 0 -0.999456 -0.032968 0 
VECTORS VYM float
-1.83697e-16 -1 0 -1.83697e-16 -1 0 -1.83697e-16 -1 0 -1.83697e-16 -1 0 -1.83697e-16 -1 0 -1.83697e-16 -1 0 -1.83697e-16 -1 0 0.0980171 -0.995185 0 -1.83697e-16 -1 0 0.995185 -0.0980171 0 -1.83697e-16 -1 0 -1.83697e-16 -1 0 0.995185 -0.0980171 0 -1.83697e-16 -1 0 0.0980171 -0.995185 0 -1.83697e-16 -1 0 -1.83697e-16 -1 0 0.92388 -0.382683 0 0.707107 -0.707107 0 0.382683 -0.92388 0 0.382683 -0.92388 0 0.707107 -0.707107 0 0.92388 -0.382683 0 0.92388 -0.382683 0 0.707107 -0.707107 0 0.382683 -0.92388 0 0.382683 -0.92388 0 0.707107 -0.707107 0 0.92388 -0.382683 0 -1.83697e-16 -1 0 -1.83697e-16 -1 0 -1.83697e-16 -1 0 -1.83697e-16 -1 0 -1.83697e-16 -1 0 -1.83697e-16 -1 0 -1.83697e-16 -1 0 -1.83697e-16 -1 0 -1.83697e-16 -1 0 -1.83697e-16 -1 0 -1.83697e-16 -1 0 -1.83697e-16 -1 0 -1.83697e-16 -1 0 -1.83697e-16 -1 0 -1.83697e-16 -1 0 -1.83697e-16 -1 0 -1.83697e-16 -1 0 -1.83697e-16 -1 0 -1.83697e-16 -1 0 -1.83697e-16 -1 0 -1.83697e-16 -1 0 -1.83697e-16 -1 0 -1.83697e-16 -1 0 -1.83697e-16 -1 0 -1.83697e-16 -1 0 -1.83697e-16 -1 0 -1.83697e-16 -1 0 -1.83697e-16 -1 0 0.382683 -0.92388 0 0.707107 -0.707107 0 0.92388 -0.382683 0 1 -3.8203e-12 0 0.382683 -0.92388 0 0.707107 -0.707107 0 0.92388 -0.382683 0 0.382683 -0.92388 0 0.707107 -0.707107 0 0.92388 -0.382683 0 1 -3.79898e-12 0 0.382683 -0.92388 0 0.707107 -0.707107 0 0.92388 -0.382683 0 0.0365987 -0.99933 0 0.0365987 -0.99933 0 0.998244 -0.0592318 0 0.998244 -0.0592318 0 0.182147 -0.983271 0 0.182147 -0.983271 0 0.0665157 -0.997785 0 0.0665157 -0.997785 0 0.999073 -0.0430384 0 0.999073 -0.0430384 0 0.0018216 -0.999998 0 0.0018216 -0.999998 0 0.013417 -0.99991 0 0.013417 -0.99991 0 0.681719 -0.731614 0 0.681719 -0.731614 0 0.0342008 -0.999415 0 0.0342008 -0.999415 0 0.999745 -0.022597 0 0.999745 -0.022597 0 0.427341 -0.904091 0 0.427341 -0.904091 0 0.0210734 -0.999778 0 0.0210734 -0.999778 0 0.999898 -0.0142647 0 0.999898 -0.0142647 0 0.0283786 -0.999597 0 0.0283786 -0.999597 0 0.751948 -0.659222 0 0.751948 -0.659222 0 0.878644 -0.477477 0 0.878644 -0.477477 0 0.0155763 -0.999879 0 0.0155763 -0.999879 0 0.999972 -0.00754509 0 0.999972 -0.00754509 0 0.0673759 -0.997728 0 0.0673759 -0.997728 0 0.999955 -0.00944557 0 0.999955 -0.00944557 0 0.983327 -0.181847 0 0.983327 -0.181847 0 0.195868 -0.98063 0 0.195868 -0.98063 0 0.998258 -0.0590037 0 0.998258 -0.0590037 0 0.0802583 -0.996774 0 0.0802583 -0.996774 0 0.0693778 -0.99759 0 0.0693778 -0.99759 0 0.485031 -0.874497 0 0.485031 -0.874497 0 0.0196167 -0.999808 0 0.0196167 -0.999808 0 0.999941 -0.0108514 0 0.999941 -0.0108514 0 0.999035 -0.0439297 0 0.999035 -0.0439297 0 0.999996 -0.00287461 0 0.999996 -0.00287461 0 0.0116216 -0.999932 0 0.0116216 -0.999932 0 0.511077 -0.859535 0 0.511077 -0.859535 0 0.852185 -0.523241 0 0.852185 -0.523241 0 0.110989 -0.993822 0 0.110989 -0.993822 0 0.991325 -0.131437 0 0.991325 -0.131437 0 0.402983 -0.915208 0 0.402983 -0.915208 0 0.999861 -0.0166498 0 0.999861 -0.0166498 0 0.061491 -0.998108 0 0.061491 -0.998108 0 0.000787123 -1 0 0.000787123 -1 0 0.00692963 -0.999976 0 0.00692963 -0.999976 0 0.9998 -0.0200193 0 0.9998 -0.0200193 0 0.0480609 -0.998844 0 0.0480609 -0.998844 0 0.0151019 -0.999886 0 0.0151019 -0.999886 0 0.70071 -0.713447 0 0.70071 -0.713447 0 0.187255 -0.982311 0 0.187255 -0.982311 0 0.831405 -0.555666 0 0.831405 -0.555666 0 0.998083 -0.0618952 0 0.998083 -0.0618952 0 0.0762192 -0.997091 0 0.0762192 -0.997091 0 0.0336473 -0.999434 0 0.0336473 -0.999434 0 0.999673 -0.0255735 0 0.999673 -0.0255735 0 0.587433 -0.809273 0 0.587433 -0.809273 0 0.00758424 -0.999971 0 0.999992 -0.0039758 0 0.999992 -0.0039758 0 0.00758424 -0.999971 0 0.736361 -0.676589 0 0.736361 -0.676589 0 0.999979 -0.00646494 0 0.999979 -0.00646494 0 0.00918515 -0.999958 0 0.00918515 -0.999958 0 0.999966 -0.00822726 0 0.999966 -0.00822726 0 0.670999 -0.741458 0 0.670999 -0.741458 0 0.986349 -0.164671 0 0.986349 -0.164671 0 1 -0.000180472 0 1 -0.000180472 0 0.00371912 -0.999993 0 0.00371912 -0.999993 0 0.011449 -0.999934 0 0.011449 -0.999934 0 0.0484157 -0.998827 0 0.0484157 -0.998827 0 0.999708 -0.0241499 0 0.999708 -0.0241499 0 0.716408 -0.697681 0 0.716408 -0.697681 0 0.999996 -0.00271987 0 0.999996 -0.00271987 0 0.00887115 -0.999961 0 0.00887115 -0.999961 0 0.314606 -0.949222 0 0.314606 -0.949222 0 0.972477 -0.233 0 0.972477 -0.233 0 0.223491 -0.974706 0 0.223491 -0.974706 0 0.675051 -0.737771 0 0.675051 -0.737771 0 0.929609 -0.368547 0 0.929609 -0.368547 0 0.379153 -0.925334 0 0.379153 -0.925334 0 0.999986 -0.00522444 0 0.999986 -0.00522444 0 0.032968 -0.999456 0 0.032968 -0.999456 0 

