# vtk DataFile Version 3.0
Generated by GMDS VTK Writer

ASCII
DATASET UNSTRUCTURED_GRID
POINTS 179 float
0 0 0
10 0 0
10 10 0
0 10 0
5 5 0
10 8 0
8 10 0
8 0 0
8 2 0
10 2 0
2 0 0
0 2 0
0 8 0
2 8 0
2 10 0
5 7 0
5 3 0
0.152241 8.76537 0
0.585786 9.41421 0
1.23463 9.84776 0
8.15224 9.23463 0
8.58579 8.58579 0
9.23463 8.15224 0
9.84776 1.23463 0
9.41421 0.585786 0
8.76537 0.152241 0
1.84776 0.765367 0
1.41421 1.41421 0
0.765367 1.84776 0
2.85714 10 0
3.71429 10 0
4.57143 10 0
5.42857 10 0
6.28571 10 0
7.14286 10 0
10 7.14286 0
10 6.28571 0
10 5.42857 0
10 4.57143 0
10 3.71429 0
10 2.85714 0
7.14286 0 0
6.28571 0 0
5.42857 0 0
4.57143 0 0
3.71429 0 0
2.85714 0 0
0 2.85714 0
0 3.71429 0
0 4.57143 0
0 5.42857 0
0 6.28571 0
0 7.14286 0
4.13223 6.80194 0
3.43634 6.24698 0
3.05014 5.44504 0
3.05014 4.55496 0
3.43634 3.75302 0
4.13223 3.19806 0
5.86777 3.19806 0
6.56366 3.75302 0
6.94986 4.55496 0
6.94986 5.44504 0
6.56366 6.24698 0
5.86777 6.80194 0
2.10947 7.89053 0
7.89053 2.10947 0
1.64466 3.33532 0
8.35534 6.66468 0
6.68065 8.41615 0
3.31935 1.58385 0
8.22979 3.75078 0
1.77021 6.24922 0
3.669 8.41022 0
6.331 1.58978 0
4.81694 1.49554 0
5.18306 8.50446 0
1.55841 4.70675 0
8.44159 5.29325 0
2.18847 2.1804 0
7.81153 7.8196 0
1.2951 8.5019 0
8.7049 1.4981 0
7.57105 1.05182 0
2.42895 8.94818 0
1.09469 7.40397 0
8.90531 2.59603 0
3.15047 7.49093 0
6.84953 2.50907 0
3.22623 2.87288 0
6.77377 7.12712 0
0.960877 3.96911 0
9.03912 6.03089 0
4.01452 0.928062 0
5.98548 9.07194 0
9.05259 7.21935 0
0.947407 2.78065 0
4.07352 2.2029 0
5.92648 7.7971 0
9.00355 4.33714 0
0.996446 5.66286 0
4.4128 9.02495 0
5.5872 0.975055 0
7.23537 9.07373 0
2.76463 0.926274 0
4.52632 7.76104 0
5.47368 2.23896 0
2.12139 4.07215 0
7.87861 5.92785 0
7.31219 3.25107 0
2.68781 6.74893 0
2.11736 5.50141 0
7.88264 4.49859 0
3.20888 9.2113 0
6.79112 0.788701 0
2.58963 3.43726 0
7.41037 6.56274 0
9.11042 3.24191 0
0.889583 6.75809 0
1.57519 9.20901 0
8.42481 0.790985 0
2.28337 1.46218 0
7.71663 8.53782 0
1.47261 2.21939 0
8.52739 7.78061 0
2.70506 8.26248 0
7.29494 1.73752 0
8.16612 2.8646 0
1.83388 7.1354 0
0.709453 4.89015 0
9.29055 5.10985 0
4.88346 0.716696 0
5.11654 9.2833 0
0.749123 8.12934 0
9.25088 1.87066 0
1.89706 8.5414 0
8.10294 1.4586 0
3.87071 7.5817 0
6.12929 2.4183 0
3.37038 0.630578 0
6.62962 9.36942 0
7.58414 5.2034 0
2.41586 4.7966 0
0.603185 3.37886 0
9.39682 6.62114 0
5.26249 7.60357 0
4.73751 2.39643 0
1.46695 7.92908 0
8.53305 2.07092 0
7.52173 2.61333 0
2.47827 7.38667 0
9.52488 7.6114 0
0.475123 2.3886 0
7.38789 4.02422 0
2.61211 5.97578 0
7.63591 9.47028 0
2.36409 0.529724 0
2.23253 2.84673 0
7.76747 7.15327 0
2.88725 2.19149 0
7.11275 7.80851 0
4.05608 1.55259 0
5.94392 8.44741 0
0.831475 8.81644 0
9.16853 1.18356 0
7.57143 0.428965 0
2.42857 9.57104 0
1.57133 4.02083 0
8.42867 5.97917 0
4.30438 8.38042 0
5.69562 1.61958 0
7.23362 5.97625 0
2.76638 4.02375 0
3.87784 9.40893 0
6.12216 0.591074 0
9.45332 2.51315 0
0.546679 7.48685 0
6.51691 3.07879 0
3.48309 6.92121 0

CELLS 286 1144
3 159 97 70 
3 160 98 69 
3 89 97 159 
3 90 98 160 
3 68 124 95 
3 67 123 96 
3 77 100 111 
3 78 99 112 
3 18 19 119 
3 24 25 120 
3 18 119 163 
3 24 120 164 
3 71 112 99 
3 72 111 100 
3 67 157 123 
3 68 158 124 
3 85 128 118 
3 86 127 117 
3 38 39 99 
3 50 51 100 
3 39 117 99 
3 51 118 100 
3 69 103 122 
3 70 104 121 
3 48 49 91 
3 36 37 92 
3 72 118 128 
3 71 117 127 
3 58 97 89 
3 64 98 90 
3 69 122 160 
3 70 121 159 
3 73 87 125 
3 74 88 126 
3 44 45 93 
3 32 33 94 
3 49 129 91 
3 37 130 92 
3 67 96 143 
3 68 95 144 
3 67 143 91 
3 68 144 92 
3 73 137 87 
3 74 138 88 
3 57 58 89 
3 63 64 90 
3 32 94 132 
3 44 93 131 
3 15 53 105 
3 16 59 106 
3 21 124 122 
3 27 123 121 
3 70 93 139 
3 69 94 140 
3 64 145 98 
3 58 146 97 
3 69 140 103 
3 70 139 104 
3 84 113 125 
3 83 114 126 
3 63 90 116 
3 57 89 115 
3 80 122 124 
3 79 121 123 
3 15 145 64 
3 16 146 58 
3 73 125 113 
3 74 126 114 
3 155 20 122 
3 156 26 121 
3 151 124 22 
3 152 123 28 
3 90 160 158 
3 89 159 157 
3 71 99 117 
3 72 100 118 
3 73 173 101 
3 74 174 102 
3 80 158 160 
3 79 157 159 
3 77 91 129 
3 78 92 130 
3 104 156 121 
3 103 155 122 
3 81 163 119 
3 82 164 120 
3 53 137 105 
3 59 138 106 
3 73 113 173 
3 74 114 174 
3 39 40 117 
3 51 52 118 
3 95 124 151 
3 96 123 152 
3 105 137 169 
3 106 138 170 
3 67 107 115 
3 68 108 116 
3 12 17 133 
3 9 23 134 
3 169 137 73 
3 170 138 74 
3 71 109 153 
3 72 110 154 
3 75 131 93 
3 76 132 94 
3 80 124 158 
3 79 123 157 
3 66 136 126 
3 65 135 125 
3 71 153 112 
3 72 154 111 
3 41 42 114 
3 29 30 113 
3 7 120 25 
3 14 119 19 
3 88 149 126 
3 87 150 125 
3 83 126 136 
3 84 125 135 
3 17 163 133 
3 23 164 134 
3 89 157 115 
3 90 158 116 
3 31 132 101 
3 43 131 102 
3 38 99 130 
3 50 100 129 
3 40 175 117 
3 52 176 118 
3 67 91 167 
3 68 92 168 
3 71 127 109 
3 72 128 110 
3 87 178 110 
3 88 177 109 
3 66 126 149 
3 65 125 150 
3 80 160 122 
3 79 159 121 
3 70 161 93 
3 69 162 94 
3 83 165 114 
3 84 166 113 
3 41 114 165 
3 29 113 166 
3 54 110 178 
3 60 109 177 
3 77 167 91 
3 78 168 92 
3 77 142 107 
3 78 141 108 
3 48 91 143 
3 36 92 144 
3 31 101 173 
3 43 102 174 
3 75 93 161 
3 76 94 162 
3 70 97 161 
3 69 98 162 
3 77 129 100 
3 78 130 99 
3 45 139 93 
3 33 140 94 
3 7 165 120 
3 14 166 119 
3 77 111 142 
3 78 112 141 
3 75 102 131 
3 76 101 132 
3 75 161 97 
3 76 162 98 
3 73 101 169 
3 74 102 170 
3 76 169 101 
3 75 170 102 
3 35 95 151 
3 47 96 152 
3 75 97 146 
3 76 98 145 
3 35 144 95 
3 47 143 96 
3 31 32 132 
3 43 44 131 
3 76 105 169 
3 75 106 170 
3 26 27 121 
3 20 21 122 
3 21 22 124 
3 27 28 123 
3 37 38 130 
3 49 50 129 
3 86 117 175 
3 85 118 176 
3 76 145 105 
3 75 146 106 
3 46 104 139 
3 34 103 140 
3 77 107 167 
3 78 108 168 
3 66 127 148 
3 65 128 147 
3 61 141 112 
3 55 142 111 
3 86 148 127 
3 85 147 128 
3 60 153 109 
3 54 154 110 
3 46 156 104 
3 34 155 103 
3 67 167 107 
3 68 168 108 
3 87 110 150 
3 88 109 149 
3 15 105 145 
3 16 106 146 
3 30 31 173 
3 42 43 174 
3 61 62 141 
3 55 56 142 
3 84 119 166 
3 83 120 165 
3 54 55 154 
3 60 61 153 
3 45 46 139 
3 33 34 140 
3 108 141 171 
3 107 142 172 
3 35 36 144 
3 47 48 143 
3 62 171 141 
3 56 172 142 
3 81 133 163 
3 82 134 164 
3 61 112 153 
3 55 111 154 
3 30 173 113 
3 42 174 114 
3 6 155 34 
3 10 156 46 
3 11 47 152 
3 5 35 151 
3 12 176 52 
3 9 175 40 
3 14 29 166 
3 7 41 165 
3 67 115 157 
3 68 116 158 
3 109 127 149 
3 110 128 150 
3 81 119 135 
3 82 120 136 
3 63 116 171 
3 57 115 172 
3 107 172 115 
3 108 171 116 
3 84 135 119 
3 83 136 120 
3 56 57 172 
3 62 63 171 
3 81 147 133 
3 82 148 134 
3 5 151 22 
3 11 152 28 
3 59 60 177 
3 53 54 178 
3 66 149 127 
3 65 150 128 
3 17 18 163 
3 23 24 164 
3 6 20 155 
3 10 26 156 
3 85 133 147 
3 86 134 148 
3 12 133 176 
3 9 134 175 
3 81 135 147 
3 82 136 148 
3 66 148 136 
3 65 147 135 
3 87 137 178 
3 88 138 177 
3 53 178 137 
3 59 177 138 
3 86 175 134 
3 85 176 133 

CELL_TYPES 286
5 
5 
5 
5 
5 
5 
5 
5 
5 
5 
5 
5 
5 
5 
5 
5 
5 
5 
5 
5 
5 
5 
5 
5 
5 
5 
5 
5 
5 
5 
5 
5 
5 
5 
5 
5 
5 
5 
5 
5 
5 
5 
5 
5 
5 
5 
5 
5 
5 
5 
5 
5 
5 
5 
5 
5 
5 
5 
5 
5 
5 
5 
5 
5 
5 
5 
5 
5 
5 
5 
5 
5 
5 
5 
5 
5 
5 
5 
5 
5 
5 
5 
5 
5 
5 
5 
5 
5 
5 
5 
5 
5 
5 
5 
5 
5 
5 
5 
5 
5 
5 
5 
5 
5 
5 
5 
5 
5 
5 
5 
5 
5 
5 
5 
5 
5 
5 
5 
5 
5 
5 
5 
5 
5 
5 
5 
5 
5 
5 
5 
5 
5 
5 
5 
5 
5 
5 
5 
5 
5 
5 
5 
5 
5 
5 
5 
5 
5 
5 
5 
5 
5 
5 
5 
5 
5 
5 
5 
5 
5 
5 
5 
5 
5 
5 
5 
5 
5 
5 
5 
5 
5 
5 
5 
5 
5 
5 
5 
5 
5 
5 
5 
5 
5 
5 
5 
5 
5 
5 
5 
5 
5 
5 
5 
5 
5 
5 
5 
5 
5 
5 
5 
5 
5 
5 
5 
5 
5 
5 
5 
5 
5 
5 
5 
5 
5 
5 
5 
5 
5 
5 
5 
5 
5 
5 
5 
5 
5 
5 
5 
5 
5 
5 
5 
5 
5 
5 
5 
5 
5 
5 
5 
5 
5 
5 
5 
5 
5 
5 
5 
5 
5 
5 
5 
5 
5 
5 
5 
5 
5 
5 
5 
5 
5 
5 
5 
5 
5 
5 
5 
5 
5 
5 
5 
5 
5 
5 
5 
5 
5 
5 
5 
5 
5 
5 
5 
POINT_DATA 179
SCALARS GMDS_ID int 1
LOOKUP_TABLE default
0 1 2 3 4 5 6 7 8 9 10 11 12 13 14 15 16 17 18 19 20 21 22 23 24 25 26 27 28 29 30 31 32 33 34 35 36 37 38 39 40 41 42 43 44 45 46 47 48 49 50 51 52 53 54 55 56 57 58 59 60 61 62 63 64 65 66 67 68 69 70 71 72 73 74 75 76 77 78 79 80 81 82 83 84 85 86 87 88 89 90 91 92 93 94 95 96 97 98 99 100 101 102 103 104 105 106 107 108 109 110 111 112 113 114 115 116 117 118 119 120 121 122 123 124 125 126 127 128 129 130 131 132 133 134 135 136 137 138 139 140 141 142 143 144 145 146 147 148 149 150 151 152 153 154 155 156 157 158 159 160 161 162 163 164 165 166 167 168 169 170 171 172 173 174 175 176 177 178 
SCALARS angle float 1
LOOKUP_TABLE default
0 0 0 0 0 0 0 0.392699 0 5.89049 0 0 5.89049 0 0.392699 -0 0 4.71239 3.14159 1.5708 1.5708 3.14159 4.71239 4.71239 3.14159 1.5708 1.5708 3.14159 4.71239 0 0 0 0 0 0 0 0 0 0 0 0 0 0 0 0 0 0 0 0 0 0 0 0 1.7952 3.59039 5.38559 0.897598 2.69279 4.48799 1.7952 3.59039 5.38559 0.897598 2.69279 4.48799 6.22738 6.22738 0.244233 0.244233 0.334424 0.334424 6.05784 6.05784 0.228022 0.228022 0.0523269 0.0523269 0.230313 0.230313 1.50628 1.50628 5.66882 5.66882 0.125363 0.125363 5.97266 5.97266 0.638676 0.638676 2.09213 2.09213 0.104651 0.104651 0.0708486 0.0708486 5.96836 5.96836 6.00434 6.00434 6.2663 6.2663 0.0650806 0.0650806 0.649389 0.649389 0.203687 0.203687 0.771852 0.771852 5.33928 5.33928 6.22652 6.22652 0.121404 0.121404 1.33971 1.33971 6.09377 6.09377 0.0596647 0.0596647 1.72639 1.72639 4.36857 4.36857 0.158204 0.158204 6.07232 6.07232 0.0390461 0.0390461 0.0295758 0.0295758 5.72422 5.72422 6.23002 6.23002 0.808369 0.808369 0.116358 0.116358 0.673476 0.673476 6.25655 6.25655 6.27948 6.27948 5.97535 5.97535 0.0201044 0.0201044 5.62157 5.62157 5.59877 5.59877 0.868271 0.868271 0.964581 0.964581 1.05201 1.05201 0.0308071 0.0308071 4.27889 4.27889 0.176626 0.176626 0.338128 0.338128 0.155498 0.155498 1.37752 1.37752 0.047216 0.047216 5.89835 5.89835 1.51473 1.51473 
VECTORS cross_X float
1 0 0 1 0 0 1 0 0 1 0 0 1 0 0 1 0 0 1 0 0 0.995185 0.0980171 0 1 0 0 0.0980171 0.995185 0 1 0 0 1 0 0 0.0980171 0.995185 0 1 0 0 0.995185 0.0980171 0 1 0 0 1 0 0 0.382683 0.92388 0 0.707107 0.707107 0 0.92388 0.382683 0 0.92388 0.382683 0 0.707107 0.707107 0 0.382683 0.92388 0 0.382683 0.92388 0 0.707107 0.707107 0 0.92388 0.382683 0 0.92388 0.382683 0 0.707107 0.707107 0 0.382683 0.92388 0 1 0 0 1 0 0 1 0 0 1 0 0 1 0 0 1 0 0 1 0 0 1 0 0 1 0 0 1 0 0 1 0 0 1 0 0 1 0 0 1 0 0 1 0 0 1 0 0 1 0 0 1 0 0 1 0 0 1 0 0 1 0 0 1 0 0 1 0 0 1 0 0 0.900969 0.433884 0 0.62349 0.781831 0 0.222521 0.974928 0 0.974928 0.222521 0 0.781831 0.62349 0 0.433884 0.900969 0 0.900969 0.433884 0 0.62349 0.781831 0 0.222521 0.974928 0 0.974928 0.222521 0 0.781831 0.62349 0 0.433884 0.900969 0 0.0139514 0.999903 0 0.0139514 0.999903 0 0.998137 0.0610204 0 0.998137 0.0610204 0 0.996507 0.0835086 0 0.996507 0.0835086 0 0.0563061 0.998414 0 0.0563061 0.998414 0 0.998376 0.0569747 0 0.998376 0.0569747 0 0.999914 0.0130813 0 0.999914 0.0130813 0 0.998343 0.0575465 0 0.998343 0.0575465 0 0.929932 0.367732 0 0.929932 0.367732 0 0.152989 0.988228 0 0.152989 0.988228 0 0.999509 0.0313356 0 0.999509 0.0313356 0 0.0775531 0.996988 0 0.0775531 0.996988 0 0.98728 0.158991 0 0.98728 0.158991 0 0.866308 0.49951 0 0.866308 0.49951 0 0.999658 0.0261598 0 0.999658 0.0261598 0 0.999843 0.0177112 0 0.999843 0.0177112 0 0.0786257 0.996904 0 0.0786257 0.996904 0 0.0696544 0.997571 0 0.0696544 0.997571 0 0.00422179 0.999991 0 0.00422179 0.999991 0 0.999868 0.0162694 0 0.999868 0.0162694 0 0.986851 0.161635 0 0.986851 0.161635 0 0.998704 0.0508998 0 0.998704 0.0508998 0 0.98144 0.191768 0 0.98144 0.191768 0 0.233791 0.972287 0 0.233791 0.972287 0 0.0141649 0.9999 0 0.0141649 0.9999 0 0.999539 0.0303464 0 0.999539 0.0303464 0 0.944434 0.328701 0 0.944434 0.328701 0 0.0473354 0.998879 0 0.0473354 0.998879 0 0.999889 0.0149156 0 0.999889 0.0149156 0 0.908298 0.418323 0 0.908298 0.418323 0 0.460584 0.887616 0 0.460584 0.887616 0 0.999218 0.0395408 0 0.999218 0.0395408 0 0.0526914 0.998611 0 0.0526914 0.998611 0 0.999952 0.00976138 0 0.999952 0.00976138 0 0.999973 0.00739388 0 0.999973 0.00739388 0 0.139288 0.990252 0 0.139288 0.990252 0 0.0132904 0.999912 0 0.0132904 0.999912 0 0.979649 0.200719 0 0.979649 0.200719 0 0.999577 0.0290853 0 0.999577 0.0290853 0 0.985859 0.167575 0 0.985859 0.167575 0 0.00665863 0.999978 0 0.00665863 0.999978 0 0.000926033 1 0 0.000926033 1 0 0.076883 0.99704 0 0.076883 0.99704 0 0.999987 0.00502607 0 0.999987 0.00502607 0 0.164651 0.986352 0 0.164651 0.986352 0 0.17027 0.985398 0 0.17027 0.985398 0 0.976533 0.215367 0 0.976533 0.215367 0 0.971065 0.238815 0 0.971065 0.238815 0 0.965614 0.25998 0 0.965614 0.25998 0 0.99997 0.0077017 0 0.99997 0.0077017 0 0.480368 0.877067 0 0.480368 0.877067 0 0.999025 0.0441421 0 0.999025 0.0441421 0 0.996429 0.0844312 0 0.996429 0.0844312 0 0.999244 0.0388648 0 0.999244 0.0388648 0 0.941285 0.337612 0 0.941285 0.337612 0 0.99993 0.0118037 0 0.99993 0.0118037 0 0.0960605 0.995375 0 0.0960605 0.995375 0 0.929152 0.369697 0 0.929152 0.369697 0 
VECTORS VY float
6.12323e-17 1 0 6.12323e-17 1 0 6.12323e-17 1 0 6.12323e-17 1 0 6.12323e-17 1 0 6.12323e-17 1 0 6.12323e-17 1 0 -0.0980171 0.995185 0 6.12323e-17 1 0 -0.995185 0.0980171 0 6.12323e-17 1 0 6.12323e-17 1 0 -0.995185 0.0980171 0 6.12323e-17 1 0 -0.0980171 0.995185 0 6.12323e-17 1 0 6.12323e-17 1 0 -0.92388 0.382683 0 -0.707107 0.707107 0 -0.382683 0.92388 0 -0.382683 0.92388 0 -0.707107 0.707107 0 -0.92388 0.382683 0 -0.92388 0.382683 0 -0.707107 0.707107 0 -0.382683 0.92388 0 -0.382683 0.92388 0 -0.707107 0.707107 0 -0.92388 0.382683 0 6.12323e-17 1 0 6.12323e-17 1 0 6.12323e-17 1 0 6.12323e-17 1 0 6.12323e-17 1 0 6.12323e-17 1 0 6.12323e-17 1 0 6.12323e-17 1 0 6.12323e-17 1 0 6.12323e-17 1 0 6.12323e-17 1 0 6.12323e-17 1 0 6.12323e-17 1 0 6.12323e-17 1 0 6.12323e-17 1 0 6.12323e-17 1 0 6.12323e-17 1 0 6.12323e-17 1 0 6.12323e-17 1 0 6.12323e-17 1 0 6.12323e-17 1 0 6.12323e-17 1 0 6.12323e-17 1 0 6.12323e-17 1 0 -0.433884 0.900969 0 -0.781831 0.62349 0 -0.974928 0.222521 0 -0.222521 0.974928 0 -0.62349 0.781831 0 -0.900969 0.433884 0 -0.433884 0.900969 0 -0.781831 0.62349 0 -0.974928 0.222521 0 -0.222521 0.974928 0 -0.62349 0.781831 0 -0.900969 0.433884 0 -0.999903 0.0139514 0 -0.999903 0.0139514 0 -0.0610204 0.998137 0 -0.0610204 0.998137 0 -0.0835086 0.996507 0 -0.0835086 0.996507 0 -0.998414 0.0563061 0 -0.998414 0.0563061 0 -0.0569747 0.998376 0 -0.0569747 0.998376 0 -0.0130813 0.999914 0 -0.0130813 0.999914 0 -0.0575465 0.998343 0 -0.0575465 0.998343 0 -0.367732 0.929932 0 -0.367732 0.929932 0 -0.988228 0.152989 0 -0.988228 0.152989 0 -0.0313356 0.999509 0 -0.0313356 0.999509 0 -0.996988 0.0775531 0 -0.996988 0.0775531 0 -0.158991 0.98728 0 -0.158991 0.98728 0 -0.49951 0.866308 0 -0.49951 0.866308 0 -0.0261598 0.999658 0 -0.0261598 0.999658 0 -0.0177112 0.999843 0 -0.0177112 0.999843 0 -0.996904 0.0786257 0 -0.996904 0.0786257 0 -0.997571 0.0696544 0 -0.997571 0.0696544 0 -0.999991 0.00422179 0 -0.999991 0.00422179 0 -0.0162694 0.999868 0 -0.0162694 0.999868 0 -0.161635 0.986851 0 -0.161635 0.986851 0 -0.0508998 0.998704 0 -0.0508998 0.998704 0 -0.191768 0.98144 0 -0.191768 0.98144 0 -0.972287 0.233791 0 -0.972287 0.233791 0 -0.9999 0.0141649 0 -0.9999 0.0141649 0 -0.0303464 0.999539 0 -0.0303464 0.999539 0 -0.328701 0.944434 0 -0.328701 0.944434 0 -0.998879 0.0473354 0 -0.998879 0.0473354 0 -0.0149156 0.999889 0 -0.0149156 0.999889 0 -0.418323 0.908298 0 -0.418323 0.908298 0 -0.887616 0.460584 0 -0.887616 0.460584 0 -0.0395408 0.999218 0 -0.0395408 0.999218 0 -0.998611 0.0526914 0 -0.998611 0.0526914 0 -0.00976138 0.999952 0 -0.00976138 0.999952 0 -0.00739388 0.999973 0 -0.00739388 0.999973 0 -0.990252 0.139288 0 -0.990252 0.139288 0 -0.999912 0.0132904 0 -0.999912 0.0132904 0 -0.200719 0.979649 0 -0.200719 0.979649 0 -0.0290853 0.999577 0 -0.0290853 0.999577 0 -0.167575 0.985859 0 -0.167575 0.985859 0 -0.999978 0.00665863 0 -0.999978 0.00665863 0 -1 0.000926033 0 -1 0.000926033 0 -0.99704 0.076883 0 -0.99704 0.076883 0 -0.00502607 0.999987 0 -0.00502607 0.999987 0 -0.986352 0.164651 0 -0.986352 0.164651 0 -0.985398 0.17027 0 -0.985398 0.17027 0 -0.215367 0.976533 0 -0.215367 0.976533 0 -0.238815 0.971065 0 -0.238815 0.971065 0 -0.25998 0.965614 0 -0.25998 0.965614 0 -0.0077017 0.99997 0 -0.0077017 0.99997 0 -0.877067 0.480368 0 -0.877067 0.480368 0 -0.0441421 0.999025 0 -0.0441421 0.999025 0 -0.0844312 0.996429 0 -0.0844312 0.996429 0 -0.0388648 0.999244 0 -0.0388648 0.999244 0 -0.337612 0.941285 0 -0.337612 0.941285 0 -0.0118037 0.99993 0 -0.0118037 0.99993 0 -0.995375 0.0960605 0 -0.995375 0.0960605 0 -0.369697 0.929152 0 -0.369697 0.929152 0 
VECTORS VXM float
-1 1.22465e-16 0 -1 1.22465e-16 0 -1 1.22465e-16 0 -1 1.22465e-16 0 -1 1.22465e-16 0 -1 1.22465e-16 0 -1 1.22465e-16 0 -0.995185 -0.0980171 0 -1 1.22465e-16 0 -0.0980171 -0.995185 0 -1 1.22465e-16 0 -1 1.22465e-16 0 -0.0980171 -0.995185 0 -1 1.22465e-16 0 -0.995185 -0.0980171 0 -1 1.22465e-16 0 -1 1.22465e-16 0 -0.382683 -0.92388 0 -0.707107 -0.707107 0 -0.92388 -0.382683 0 -0.92388 -0.382683 0 -0.707107 -0.707107 0 -0.382683 -0.92388 0 -0.382683 -0.92388 0 -0.707107 -0.707107 0 -0.92388 -0.382683 0 -0.92388 -0.382683 0 -0.707107 -0.707107 0 -0.382683 -0.92388 0 -1 1.22465e-16 0 -1 1.22465e-16 0 -1 1.22465e-16 0 -1 1.22465e-16 0 -1 1.22465e-16 0 -1 1.22465e-16 0 -1 1.22465e-16 0 -1 1.22465e-16 0 -1 1.22465e-16 0 -1 1.22465e-16 0 -1 1.22465e-16 0 -1 1.22465e-16 0 -1 1.22465e-16 0 -1 1.22465e-16 0 -1 1.22465e-16 0 -1 1.22465e-16 0 -1 1.22465e-16 0 -1 1.22465e-16 0 -1 1.22465e-16 0 -1 1.22465e-16 0 -1 1.22465e-16 0 -1 1.22465e-16 0 -1 1.22465e-16 0 -1 1.22465e-16 0 -0.900969 -0.433884 0 -0.62349 -0.781831 0 -0.222521 -0.974928 0 -0.974928 -0.222521 0 -0.781831 -0.62349 0 -0.433884 -0.900969 0 -0.900969 -0.433884 0 -0.62349 -0.781831 0 -0.222521 -0.974928 0 -0.974928 -0.222521 0 -0.781831 -0.62349 0 -0.433884 -0.900969 0 -0.0139514 -0.999903 0 -0.0139514 -0.999903 0 -0.998137 -0.0610204 0 -0.998137 -0.0610204 0 -0.996507 -0.0835086 0 -0.996507 -0.0835086 0 -0.0563061 -0.998414 0 -0.0563061 -0.998414 0 -0.998376 -0.0569747 0 -0.998376 -0.0569747 0 -0.999914 -0.0130813 0 -0.999914 -0.0130813 0 -0.998343 -0.0575465 0 -0.998343 -0.0575465 0 -0.929932 -0.367732 0 -0.929932 -0.367732 0 -0.152989 -0.988228 0 -0.152989 -0.988228 0 -0.999509 -0.0313356 0 -0.999509 -0.0313356 0 -0.0775531 -0.996988 0 -0.0775531 -0.996988 0 -0.98728 -0.158991 0 -0.98728 -0.158991 0 -0.866308 -0.49951 0 -0.866308 -0.49951 0 -0.999658 -0.0261598 0 -0.999658 -0.0261598 0 -0.999843 -0.0177112 0 -0.999843 -0.0177112 0 -0.0786257 -0.996904 0 -0.0786257 -0.996904 0 -0.0696544 -0.997571 0 -0.0696544 -0.997571 0 -0.00422179 -0.999991 0 -0.00422179 -0.999991 0 -0.999868 -0.0162694 0 -0.999868 -0.0162694 0 -0.986851 -0.161635 0 -0.986851 -0.161635 0 -0.998704 -0.0508998 0 -0.998704 -0.0508998 0 -0.98144 -0.191768 0 -0.98144 -0.191768 0 -0.233791 -0.972287 0 -0.233791 -0.972287 0 -0.0141649 -0.9999 0 -0.0141649 -0.9999 0 -0.999539 -0.0303464 0 -0.999539 -0.0303464 0 -0.944434 -0.328701 0 -0.944434 -0.328701 0 -0.0473354 -0.998879 0 -0.0473354 -0.998879 0 -0.999889 -0.0149156 0 -0.999889 -0.0149156 0 -0.908298 -0.418323 0 -0.908298 -0.418323 0 -0.460584 -0.887616 0 -0.460584 -0.887616 0 -0.999218 -0.0395408 0 -0.999218 -0.0395408 0 -0.0526914 -0.998611 0 -0.0526914 -0.998611 0 -0.999952 -0.00976138 0 -0.999952 -0.00976138 0 -0.999973 -0.00739388 0 -0.999973 -0.00739388 0 -0.139288 -0.990252 0 -0.139288 -0.990252 0 -0.0132904 -0.999912 0 -0.0132904 -0.999912 0 -0.979649 -0.200719 0 -0.979649 -0.200719 0 -0.999577 -0.0290853 0 -0.999577 -0.0290853 0 -0.985859 -0.167575 0 -0.985859 -0.167575 0 -0.00665863 -0.999978 0 -0.00665863 -0.999978 0 -0.000926033 -1 0 -0.000926033 -1 0 -0.076883 -0.99704 0 -0.076883 -0.99704 0 -0.999987 -0.00502607 0 -0.999987 -0.00502607 0 -0.164651 -0.986352 0 -0.164651 -0.986352 0 -0.17027 -0.985398 0 -0.17027 -0.985398 0 -0.976533 -0.215367 0 -0.976533 -0.215367 0 -0.971065 -0.238815 0 -0.971065 -0.238815 0 -0.965614 -0.25998 0 -0.965614 -0.25998 0 -0.99997 -0.0077017 0 -0.99997 -0.0077017 0 -0.480368 -0.877067 0 -0.480368 -0.877067 0 -0.999025 -0.0441421 0 -0.999025 -0.0441421 0 -0.996429 -0.0844312 0 -0.996429 -0.0844312 0 -0.999244 -0.0388648 0 -0.999244 -0.0388648 0 -0.941285 -0.337612 0 -0.941285 -0.337612 0 -0.99993 -0.0118037 0 -0.99993 -0.0118037 0 -0.0960605 -0.995375 0 -0.0960605 -0.995375 0 -0.929152 -0.369697 0 -0.929152 -0.369697 0 
VECTORS VYM float
-1.83697e-16 -1 0 -1.83697e-16 -1 0 -1.83697e-16 -1 0 -1.83697e-16 -1 0 -1.83697e-16 -1 0 -1.83697e-16 -1 0 -1.83697e-16 -1 0 0.0980171 -0.995185 0 -1.83697e-16 -1 0 0.995185 -0.0980171 0 -1.83697e-16 -1 0 -1.83697e-16 -1 0 0.995185 -0.0980171 0 -1.83697e-16 -1 0 0.0980171 -0.995185 0 -1.83697e-16 -1 0 -1.83697e-16 -1 0 0.92388 -0.382683 0 0.707107 -0.707107 0 0.382683 -0.92388 0 0.382683 -0.92388 0 0.707107 -0.707107 0 0.92388 -0.382683 0 0.92388 -0.382683 0 0.707107 -0.707107 0 0.382683 -0.92388 0 0.382683 -0.92388 0 0.707107 -0.707107 0 0.92388 -0.382683 0 -1.83697e-16 -1 0 -1.83697e-16 -1 0 -1.83697e-16 -1 0 -1.83697e-16 -1 0 -1.83697e-16 -1 0 -1.83697e-16 -1 0 -1.83697e-16 -1 0 -1.83697e-16 -1 0 -1.83697e-16 -1 0 -1.83697e-16 -1 0 -1.83697e-16 -1 0 -1.83697e-16 -1 0 -1.83697e-16 -1 0 -1.83697e-16 -1 0 -1.83697e-16 -1 0 -1.83697e-16 -1 0 -1.83697e-16 -1 0 -1.83697e-16 -1 0 -1.83697e-16 -1 0 -1.83697e-16 -1 0 -1.83697e-16 -1 0 -1.83697e-16 -1 0 -1.83697e-16 -1 0 -1.83697e-16 -1 0 0.433884 -0.900969 0 0.781831 -0.62349 0 0.974928 -0.222521 0 0.222521 -0.974928 0 0.62349 -0.781831 0 0.900969 -0.433884 0 0.433884 -0.900969 0 0.781831 -0.62349 0 0.974928 -0.222521 0 0.222521 -0.974928 0 0.62349 -0.781831 0 0.900969 -0.433884 0 0.999903 -0.0139514 0 0.999903 -0.0139514 0 0.0610204 -0.998137 0 0.0610204 -0.998137 0 0.0835086 -0.996507 0 0.0835086 -0.996507 0 0.998414 -0.0563061 0 0.998414 -0.0563061 0 0.0569747 -0.998376 0 0.0569747 -0.998376 0 0.0130813 -0.999914 0 0.0130813 -0.999914 0 0.0575465 -0.998343 0 0.0575465 -0.998343 0 0.367732 -0.929932 0 0.367732 -0.929932 0 0.988228 -0.152989 0 0.988228 -0.152989 0 0.0313356 -0.999509 0 0.0313356 -0.999509 0 0.996988 -0.0775531 0 0.996988 -0.0775531 0 0.158991 -0.98728 0 0.158991 -0.98728 0 0.49951 -0.866308 0 0.49951 -0.866308 0 0.0261598 -0.999658 0 0.0261598 -0.999658 0 0.0177112 -0.999843 0 0.0177112 -0.999843 0 0.996904 -0.0786257 0 0.996904 -0.0786257 0 0.997571 -0.0696544 0 0.997571 -0.0696544 0 0.999991 -0.00422179 0 0.999991 -0.00422179 0 0.0162694 -0.999868 0 0.0162694 -0.999868 0 0.161635 -0.986851 0 0.161635 -0.986851 0 0.0508998 -0.998704 0 0.0508998 -0.998704 0 0.191768 -0.98144 0 0.191768 -0.98144 0 0.972287 -0.233791 0 0.972287 -0.233791 0 0.9999 -0.0141649 0 0.9999 -0.0141649 0 0.0303464 -0.999539 0 0.0303464 -0.999539 0 0.328701 -0.944434 0 0.328701 -0.944434 0 0.998879 -0.0473354 0 0.998879 -0.0473354 0 0.0149156 -0.999889 0 0.0149156 -0.999889 0 0.418323 -0.908298 0 0.418323 -0.908298 0 0.887616 -0.460584 0 0.887616 -0.460584 0 0.0395408 -0.999218 0 0.0395408 -0.999218 0 0.998611 -0.0526914 0 0.998611 -0.0526914 0 0.00976138 -0.999952 0 0.00976138 -0.999952 0 0.00739388 -0.999973 0 0.00739388 -0.999973 0 0.990252 -0.139288 0 0.990252 -0.139288 0 0.999912 -0.0132904 0 0.999912 -0.0132904 0 0.200719 -0.979649 0 0.200719 -0.979649 0 0.0290853 -0.999577 0 0.0290853 -0.999577 0 0.167575 -0.985859 0 0.167575 -0.985859 0 0.999978 -0.00665863 0 0.999978 -0.00665863 0 1 -0.000926033 0 1 -0.000926033 0 0.99704 -0.076883 0 0.99704 -0.076883 0 0.00502607 -0.999987 0 0.00502607 -0.999987 0 0.986352 -0.164651 0 0.986352 -0.164651 0 0.985398 -0.17027 0 0.985398 -0.17027 0 0.215367 -0.976533 0 0.215367 -0.976533 0 0.238815 -0.971065 0 0.238815 -0.971065 0 0.25998 -0.965614 0 0.25998 -0.965614 0 0.0077017 -0.99997 0 0.0077017 -0.99997 0 0.877067 -0.480368 0 0.877067 -0.480368 0 0.0441421 -0.999025 0 0.0441421 -0.999025 0 0.0844312 -0.996429 0 0.0844312 -0.996429 0 0.0388648 -0.999244 0 0.0388648 -0.999244 0 0.337612 -0.941285 0 0.337612 -0.941285 0 0.0118037 -0.99993 0 0.0118037 -0.99993 0 0.995375 -0.0960605 0 0.995375 -0.0960605 0 0.369697 -0.929152 0 0.369697 -0.929152 0 


CELL_DATA 286
SCALARS GMDS_ID int 1
LOOKUP_TABLE default
0 1 2 3 4 5 6 7 8 9 10 11 12 13 14 15 16 17 18 19 20 21 22 23 24 25 26 27 28 29 30 31 32 33 34 35 36 37 38 39 40 41 42 43 44 45 46 47 48 49 50 51 52 53 54 55 56 57 58 59 60 61 62 63 64 65 66 67 68 69 70 71 72 73 74 75 76 77 78 79 80 81 82 83 84 85 86 87 88 89 90 91 92 93 94 95 96 97 98 99 100 101 102 103 104 105 106 107 108 109 110 111 112 113 114 115 116 117 118 119 120 121 122 123 124 125 126 127 128 129 130 131 132 133 134 135 136 137 138 139 140 141 142 143 144 145 146 147 148 149 150 151 152 153 154 155 156 157 158 159 160 161 162 163 164 165 166 167 168 169 170 171 172 173 174 175 176 177 178 179 180 181 182 183 184 185 186 187 188 189 190 191 192 193 194 195 196 197 198 199 200 201 202 203 204 205 206 207 208 209 210 211 212 213 214 215 216 217 218 219 220 221 222 223 224 225 226 227 228 229 230 231 232 233 234 235 236 237 238 239 240 241 242 243 244 245 246 247 248 249 250 251 252 253 254 255 256 257 258 259 260 261 262 263 264 265 266 267 268 269 270 271 272 273 274 275 276 277 278 279 280 281 282 283 284 285 

SCALARS BND_SURFACE_COLOR int 1
LOOKUP_TABLE default
1 1 1 1 1 1 1 1 1 1 1 1 1 1 1 1 1 1 1 1 1 1 1 1 1 1 1 1 1 1 1 1 1 1 1 1 1 1 1 1 1 1 1 1 1 1 1 1 1 1 1 1 1 1 1 1 1 1 1 1 1 1 1 1 1 1 1 1 1 1 1 1 1 1 1 1 1 1 1 1 1 1 1 1 1 1 1 1 1 1 1 1 1 1 1 1 1 1 1 1 1 1 1 1 1 1 1 1 1 1 1 1 1 1 1 1 1 1 1 1 1 1 1 1 1 1 1 1 1 1 1 1 1 1 1 1 1 1 1 1 1 1 1 1 1 1 1 1 1 1 1 1 1 1 1 1 1 1 1 1 1 1 1 1 1 1 1 1 1 1 1 1 1 1 1 1 1 1 1 1 1 1 1 1 1 1 1 1 1 1 1 1 1 1 1 1 1 1 1 1 1 1 1 1 1 1 1 1 1 1 1 1 1 1 1 1 1 1 1 1 1 1 1 1 1 1 1 1 1 1 1 1 1 1 1 1 1 1 1 1 1 1 1 1 1 1 1 1 1 1 1 1 1 1 1 1 1 1 1 1 1 1 1 1 1 1 1 1 1 1 1 1 1 1 1 1 1 1 1 1 1 1 1 1 1 1 

SCALARS angleDeviation float 1
LOOKUP_TABLE default
0.887233 0.887233 1.58065 1.58065 1.43923 1.43923 0.191316 0.191316 2.05462 2.05462 2.0944 2.0944 0.138971 0.138971 1.91946 1.91946 0.0807412 0.0807412 0.0112581 0.0112581 0.126275 0.126275 0.92798 0.92798 0.0697675 0.0697675 0.0239542 0.0239542 2.0944 2.0944 0.92798 0.92798 0.320314 0.320314 0.0472324 0.0472324 0.0697675 0.0697675 0.372707 0.372707 0.180579 0.180579 0.386897 0.386897 1.59724 1.59724 0.0472324 0.0472324 1.1968 1.1968 1.76145 1.76145 0.175717 0.175717 1.19433 1.19433 0.355354 0.355354 0.0245335 0.0245335 0.902056 0.902056 1.9082 1.9082 1.1968 1.1968 0.0710789 0.0710789 0.572082 0.572082 0.835331 0.835331 0.751699 0.751699 0.138971 0.138971 0.120538 0.120538 0.361129 0.361129 0.127511 0.127511 0.718003 0.718003 1.37597 1.37597 1.06101 1.06101 0.120538 0.120538 0.126275 0.126275 1.06652 1.06652 0.435247 0.435247 0.730318 0.730318 0.785398 0.785398 0.435247 0.435247 0.479038 0.479038 0.0275152 0.0275152 2.0944 2.0944 0.142674 0.142674 0.418501 0.418501 0.0809361 0.0809361 1.00742 1.00742 0.412381 0.412381 0.140912 0.140912 0.963551 0.963551 0.751699 0.751699 0.0433871 0.0433871 0.0372889 0.0372889 0.256557 0.256557 0.155651 0.155651 0.488692 0.488692 1.63909 1.63909 0.142674 0.142674 0.449591 0.449591 0.202411 0.202411 0.0368143 0.0368143 0.11775 0.11775 2.0944 2.0944 0.155651 0.155651 0.361026 0.361026 0.087524 0.087524 0.0433871 0.0433871 0.0266943 0.0266943 0.408845 0.408845 0.1648 0.1648 0.0775718 0.0775718 0.222023 0.222023 0.486758 0.486758 0.0236699 0.0236699 0.22078 0.22078 0.108628 0.108628 0.0687809 0.0687809 0.441077 0.441077 0.22078 0.22078 0.209885 0.209885 0.0197172 0.0197172 0.100907 0.100907 1.0472 1.0472 1.0472 1.0472 0.0260308 0.0260308 0.130282 0.130282 0.138261 0.138261 0.432926 0.432926 0.361026 0.361026 0.168019 0.168019 1.04738 1.04738 0.0664404 0.0664404 1.33892 1.33892 0.578847 0.578847 0.351746 0.351746 1.05505 1.05505 0.138261 0.138261 0.0314774 0.0314774 1.1968 1.1968 0.077974 0.077974 1.33892 1.33892 0.0775718 0.0775718 0.46936 0.46936 0.0177565 0.0177565 0.46936 0.46936 0.963551 0.963551 0.560624 0.560624 0.0809361 0.0809361 0.578847 0.578847 0.441077 0.441077 0.261799 0.261799 0.261799 0.261799 0.730318 0.730318 0.64267 0.64267 0.449356 0.449356 0.902056 0.902056 0.403776 0.403776 0.119018 0.119018 1.1968 1.1968 0.204355 0.204355 1.0472 1.0472 1.38377 1.38377 0.153978 0.153978 1.0472 1.0472 1.0472 1.0472 0.167423 0.167423 0.116089 0.116089 0.374137 0.374137 0.169781 0.169781 0.584038 0.584038 0.657885 0.657885 0.16563 0.16563 

SCALARS maxAngleDeviation float 1
LOOKUP_TABLE default