# vtk DataFile Version 3.0
Generated by GMDS VTK Writer

ASCII
DATASET UNSTRUCTURED_GRID
POINTS 510 float
0 0 0
0 5 0
1 5 0
1 0 0
5 2 0
5 3 0
4 3 0
4 2 0
1.5 2.5 0
1.5 1.5 0
1.5 3.5 0
2 2.5 0
0 3 0
0 2 0
0.5 2 0
0.5 3 0
1 3.5 0
1 1.5 0
0.195414 4.99995 0
0.390358 4.98824 0
0.582611 4.95376 0
0.770847 4.90148 0
0.95494 4.83602 0
1.13518 4.76057 0
1.31195 4.6773 0
1.48571 4.5879 0
1.65727 4.49436 0
1.82732 4.39808 0
1.99631 4.29996 0
2.16458 4.2006 0
2.3324 4.10048 0
2.5 4 0
2.6676 3.89952 0
2.83542 3.7994 0
3.00369 3.70004 0
3.17268 3.60192 0
3.34273 3.50564 0
3.51429 3.4121 0
3.68805 3.3227 0
3.86482 3.23943 0
4.04506 3.16398 0
4.22915 3.09852 0
4.41739 3.04624 0
4.60964 3.01176 0
4.80459 3.00005 0
0.195414 5.38788e-05 0
0.390358 0.0117647 0
0.582611 0.0462416 0
0.770847 0.0985229 0
0.95494 0.163976 0
1.13518 0.239425 0
1.31195 0.322698 0
1.48571 0.412096 0
1.65727 0.505638 0
1.82732 0.601915 0
1.99631 0.700042 0
2.16458 0.799402 0
2.3324 0.89952 0
2.5 1 0
2.6676 1.10048 0
2.83542 1.2006 0
3.00369 1.29996 0
3.17268 1.39808 0
3.34273 1.49436 0
3.51429 1.5879 0
3.68805 1.6773 0
3.86482 1.76057 0
4.04506 1.83602 0
4.22915 1.90148 0
4.41739 1.95376 0
4.60964 1.98824 0
4.80459 1.99995 0
5 2.8 0
5 2.6 0
5 2.4 0
5 2.2 0
1.99248 2.67279 0
1.96945 2.84419 0
1.92937 3.01241 0
1.86916 3.17445 0
1.78313 3.32423 0
1.66169 3.44627 0
1.66169 1.55373 0
1.78313 1.67577 0
1.86916 1.82555 0
1.92937 1.98759 0
1.96945 2.15581 0
1.99248 2.32721 0
0.180684 3.00238 0
0.358938 3.03033 0
0.526358 3.09718 0
0.677465 3.19611 0
0.822535 3.30389 0
0.973642 3.40282 0
1.14106 3.46967 0
1.31932 3.49762 0
1.31932 1.50238 0
1.14106 1.53033 0
0.973642 1.59718 0
0.822535 1.69611 0
0.677465 1.80389 0
0.526358 1.90282 0
0.358938 1.96967 0
0.180684 1.99762 0
0 4.8 0
0 4.6 0
0 4.4 0
0 4.2 0
0 4 0
0 3.8 0
0 3.6 0
0 3.4 0
0 3.2 0
0 1.8 0
0 1.6 0
0 1.4 0
0 1.2 0
0 1 0
0 0.8 0
0 0.6 0
0 0.4 0
0 0.2 0
3.03956 2.50844 0
0.768996 0.884519 0
0.768996 4.11548 0
2.61732 3.09983 0
2.6427 1.94809 0
3.756 2.5 0
2.2832 1.48813 0
2.28569 3.50658 0
1.3933 0.971776 0
1.3933 4.02822 0
2.51444 2.58888 0
4.31553 2.50156 0
3.15697 3.01219 0
3.15478 1.98369 0
0.546399 1.27113 0
0.546399 3.72887 0
1.84668 1.12965 0
1.84668 3.87035 0
0.514048 0.497073 0
0.514048 4.50293 0
3.57274 2.09731 0
3.57914 2.89955 0
2.35891 2.18769 0
1.13081 4.31962 0
1.13081 0.680377 0
2.68188 2.29808 0
1.05683 3.84284 0
1.05683 1.15716 0
0.440065 0.885629 0
0.440065 4.11437 0
2.26106 3.127 0
2.23359 1.87894 0
2.65714 3.46775 0
2.66513 1.53296 0
4.04044 2.77027 0
4.04044 2.22973 0
3.41519 2.57729 0
2.81331 2.73289 0
4.64672 2.66976 0
2.94185 1.67498 0
2.96422 3.33959 0
2.275 2.82068 0
0.852546 0.50999 0
0.852546 4.49001 0
0.323053 1.62519 0
0.323053 3.37481 0
1.97673 3.5789 0
1.97484 1.41988 0
2.17466 1.17467 0
2.17466 3.82533 0
4.64431 2.3086 0
0.823813 1.3577 0
0.823813 3.6423 0
3.27261 2.28752 0
1.56192 1.18072 0
1.56192 3.81928 0
1.68358 0.880271 0
1.68358 4.11973 0
2.25864 2.47146 0
0.283692 0.281417 0
0.283692 4.71858 0
3.41703 1.86059 0
3.43366 3.14547 0
2.08376 3.32587 0
2.88391 2.03619 0
1.41534 0.690275 0
1.41534 4.30972 0
2.08038 1.66177 0
4.32418 2.79117 0
4.3042 2.22453 0
2.46372 3.72636 0
2.46372 1.27364 0
3.14779 2.74027 0
2.55485 2.84245 0
0.604867 1.55012 0
0.604867 3.44988 0
1.30359 1.2453 0
1.30359 3.7547 0
3.84547 2.03431 0
3.84547 2.96569 0
2.89351 3.03333 0
2.76781 2.52772 0
0.265588 4.33651 0
0.265588 0.663489 0
0.268151 1.16321 0
0.268151 3.83679 0
2.47426 1.71176 0
4.02266 2.5 0
2.45086 3.36154 0
3.52299 2.35284 0
0.656241 1.08868 0
0.656241 3.91132 0
3.01192 2.23578 0
0.618737 0.32714 0
0.618737 4.67286 0
1.17244 0.928067 0
1.17244 4.07193 0
0.594864 0.772427 0
0.594864 4.22757 0
1.74357 1.36684 0
1.74357 3.63316 0
2.17558 2.05835 0
3.23704 1.67895 0
3.21018 3.29531 0
1.99068 3.9639 0
1.99068 1.0361 0
2.51604 2.36196 0
3.74865 2.7045 0
3.76381 2.2554 0
2.13146 2.9597 0
0.237631 1.39888 0
0.237631 3.60112 0
3.32857 2.89772 0
2.57356 2.08529 0
1.06545 0.450128 0
1.06545 4.54987 0
4.77691 2.46292 0
2.87021 1.48252 0
2.87375 3.51858 0
2.18971 2.6608 0
2.75759 3.27347 0
2.75869 1.71695 0
0.930781 4.28073 0
0.930781 0.719268 0
3.35543 2.07584 0
0.243723 3.19161 0
0.243723 1.80839 0
2.43708 3.02294 0
1.02714 1.34098 0
1.02714 3.65902 0
2.40491 1.9992 0
3.69875 1.90829 0
3.67032 3.10167 0
2.21112 2.25503 0
2.64083 1.30163 0
2.64002 3.69845 0
4.78349 2.21602 0
3.04367 2.83724 0
0.873324 1.07104 0
0.873324 3.92896 0
1.26709 4.46463 0
1.26709 0.535366 0
2.0668 1.85262 0
2.063 3.14614 0
0.195023 4.5185 0
0.195023 0.481504 0
4.52145 2.82221 0
3.58607 2.63178 0
0.140867 0.899299 0
0.140867 4.1007 0
4.79269 2.79297 0
1.88522 4.13277 0
1.88522 0.867233 0
2.00041 3.77279 0
2.00041 1.22721 0
0.447089 1.0953 0
0.447089 3.9047 0
4.05593 2.9588 0
4.05593 2.0412 0
2.4727 1.4555 0
2.47117 3.55518 0
0.51954 1.69771 0
0.51954 3.30229 0
1.6745 1.05732 0
1.6745 3.94268 0
3.2398 2.49374 0
0.468642 0.205845 0
0.468642 4.79416 0
2.98936 1.89332 0
4.54213 2.49326 0
2.26702 3.32809 0
2.89426 2.38124 0
0.583396 0.943471 0
0.583396 4.05653 0
4.47049 2.14734 0
0.782181 1.53071 0
0.782181 3.46929 0
2.1443 1.36154 0
2.14546 3.6375 0
1.62765 4.30958 0
1.62765 0.69042 0
0.976312 4.12077 0
0.976312 0.879232 0
2.9812 2.68561 0
2.25381 1.66604 0
4.18054 2.6439 0
4.16932 2.35816 0
0.650083 4.41309 0
0.650083 0.586908 0
1.82928 1.49149 0
1.83057 3.50805 0
2.63948 2.68728 0
0.790266 0.29131 0
0.790266 4.70869 0
2.71689 2.92192 0
2.36463 2.66411 0
2.35804 1.11964 0
2.35804 3.88036 0
1.45045 1.30171 0
1.45045 3.69829 0
1.22256 1.0974 0
1.22256 3.9026 0
2.11162 2.79163 0
3.04554 3.143 0
3.12138 1.57265 0
3.1205 3.44224 0
3.47169 2.78114 0
1.30607 0.827228 0
1.30607 4.17277 0
1.19349 1.36837 0
1.19349 3.63163 0
3.90786 2.3616 0
3.91619 2.64308 0
1.51168 0.83754 0
1.51168 4.16246 0
0.450073 1.46811 0
0.450073 3.53189 0
0.1465 1.55095 0
0.1465 3.44905 0
2.79938 1.88315 0
1.59729 1.37577 0
1.59729 3.62423 0
0.650082 3.59463 0
0.650082 1.40537 0
4.42176 2.65364 0
2.17508 0.980705 0
2.17508 4.01929 0
1.9583 3.41256 0
3.16031 2.15639 0
0.759454 4.30538 0
0.759454 0.694623 0
2.73392 2.10897 0
4.42379 2.35249 0
1.4126 1.12863 0
1.4126 3.87137 0
2.59083 3.25902 0
3.39863 2.40789 0
3.44771 2.24093 0
4.83051 2.62576 0
1.95719 1.58503 0
3.38666 1.69607 0
3.38666 3.30393 0
2.11888 2.41801 0
2.09655 3.48932 0
0.166441 0.167203 0
0.166441 4.8328 0
4.26661 2.93352 0
4.25032 2.07046 0
0.394322 1.80076 0
0.394322 3.19924 0
0.441434 0.681853 0
0.441434 4.31815 0
2.60583 2.48035 0
2.29361 2.97282 0
2.30624 3.67419 0
2.30755 1.32406 0
2.87007 2.19576 0
3.53947 1.78129 0
3.5386 3.25717 0
2.09576 1.50811 0
2.43356 3.19157 0
0.894853 1.23627 0
0.894853 3.76373 0
2.37135 2.33568 0
3.25783 1.86459 0
3.28837 3.11276 0
2.49137 1.86135 0
1.71498 1.22658 0
1.71498 3.77342 0
0.145815 1.26718 0
0.145815 3.73282 0
3.11219 2.36347 0
0.401525 0.390424 0
0.401525 4.60958 0
2.42183 2.47883 0
0.959675 0.330966 0
0.959675 4.66903 0
2.88694 3.1785 0
1.49061 4.43324 0
1.49061 0.566759 0
0.14051 3.9081 0
0.14051 1.0919 0
1.81613 0.994115 0
1.81613 4.00588 0
3.0261 2.07695 0
1.7847 4.24981 0
1.7847 0.750194 0
2.39121 1.60613 0
2.61868 1.75509 0
3.45882 2.991 0
0.940398 3.53072 0
0.940398 1.46928 0
2.80593 1.35006 0
2.80593 3.64994 0
3.89084 2.1803 0
3.89084 2.8197 0
0.347675 1.2891 0
0.347675 3.7109 0
3.27852 2.70891 0
4.65252 2.13575 0
0.131526 0.318138 0
0.131526 4.68186 0
0.123763 1.70618 0
0.123763 3.29382 0
3.53203 1.95757 0
1.04573 1.01434 0
1.04573 3.98566 0
1.87392 3.69146 0
1.87373 1.30844 0
0.683964 1.66045 0
0.683964 3.33955 0
2.42627 2.85981 0
4.66393 2.87121 0
0.309895 0.13899 0
0.309895 4.86101 0
3.02034 3.55244 0
3.02076 1.45747 0
3.13991 2.607 0
0.346617 4.45385 0
0.346617 0.546147 0
2.49753 2.7259 0
3.90922 1.90526 0
3.90774 3.09526 0
2.52685 1.14849 0
2.52681 3.85152 0
2.06303 1.98623 0
2.09494 2.16497 0
2.0346 0.862848 0
2.0346 4.13715 0
1.96497 3.2631 0
1.03846 4.41586 0
1.03846 0.584142 0
3.72714 2.1179 0
3.72467 2.88284 0
3.11704 1.77803 0
2.16871 3.23178 0
1.54165 0.992486 0
1.54165 4.00751 0
0.121098 4.2973 0
0.121098 0.702697 0
3.17512 2.86834 0
3.55957 2.47469 0
4.85736 2.33539 0
1.9843 1.73427 0
1.1955 4.60145 0
1.1955 0.39855 0
1.2576 0.698503 0
1.2576 4.3015 0
3.68196 2.37313 0
3.61939 2.23959 0
4.40693 2.90678 0
0.740785 3.76163 0
0.740785 1.23837 0
0.121546 1.87028 0
0.121546 3.12972 0
0.647413 0.182155 0
0.647413 4.81785 0
4.17351 2.81526 0
4.17344 2.19541 0
4.16802 2.50024 0
2.89923 2.56718 0
2.77383 3.10309 0
3.62128 2.77511 0
2.14687 1.75924 0
2.49009 2.22541 0
2.79181 3.40765 0
2.79072 1.5928 0
2.56284 2.96927 0
2.29874 2.07224 0
1.16072 3.75816 0
1.16072 1.24184 0
0.288669 1.00063 0
0.288669 3.99937 0
2.52806 1.59961 0
2.11875 2.54112 0
4.885 2.11687 0
1.34348 1.38065 0
1.34348 3.61935 0
2.3599 1.76564 0
2.90155 2.87677 0
3.0296 2.97718 0
0.699818 4.55457 0
0.699818 0.445427 0
0.291491 0.813405 0
0.291491 4.1866 0
4.89313 2.89108 0
1.09199 4.19034 0
1.09199 0.809662 0

CELLS 887 3548
3 388 235 252 
3 126 235 388 
3 453 263 146 
3 452 145 262 
3 73 360 74 
3 236 263 453 
3 237 452 262 
3 360 238 74 
3 333 157 308 
3 334 307 156 
3 209 333 308 
3 209 307 334 
3 159 203 482 
3 69 296 369 
3 234 411 387 
3 147 203 374 
3 172 238 291 
3 160 291 238 
3 129 210 282 
3 134 234 387 
3 159 313 203 
3 191 369 296 
3 161 341 243 
3 123 260 212 
3 124 213 261 
3 154 282 210 
3 147 293 203 
3 138 227 276 
3 139 275 226 
3 161 290 341 
3 261 473 384 
3 260 383 474 
3 486 144 252 
3 153 223 447 
3 127 209 334 
3 127 333 209 
3 154 210 357 
3 129 292 210 
3 170 276 227 
3 171 226 275 
3 123 212 294 
3 124 295 213 
3 258 464 172 
3 235 486 252 
3 464 238 172 
3 133 346 307 
3 63 224 326 
3 36 327 225 
3 151 220 373 
3 150 372 219 
3 136 277 212 
3 137 213 278 
3 139 226 405 
3 138 404 227 
3 162 325 225 
3 136 212 474 
3 137 473 213 
3 213 473 261 
3 212 260 474 
3 153 447 264 
3 223 490 255 
3 197 338 284 
3 196 283 337 
3 123 294 219 
3 124 220 295 
3 190 307 346 
3 184 411 254 
3 147 228 486 
3 77 231 78 
3 167 284 338 
3 166 337 283 
[...]
POINT_DATA 510
SCALARS GMDS_ID int 1
LOOKUP_TABLE default
0 1 2 3 4 5 6 7 8 9 10 11 12 13 14 15 16 17 18 19 20 21 22 23 24 25 26 27 28 29 30 31 32 33 34 35 36 37 38 39 40 41 42 43 44 45 46 47 48 49 50 51 52 53 54 55 56 57 58 59 60 61 62 63 64 65 66 67 68 69 70 71 72 73 74 75 76 77 78 79 80 81 82 83 84 85 86 87 88 89 90 91 92 93 94 95 96 97 98 99 100 101 102 103 104 105 106 107 108 109 110 111 112 113 114 115 116 117 118 119 120 121 122 123 124 125 126 127 128 129 130 131 132 133 134 135 136 137 138 139 140 141 142 143 144 145 146 147 148 149 150 151 152 153 154 155 156 157 158 159 160 161 162 163 164 165 166 167 168 169 170 171 172 173 174 175 176 177 178 179 180 181 182 183 184 185 186 187 188 189 190 191 192 193 194 195 196 197 198 199 200 201 202 203 204 205 206 207 208 209 210 211 212 213 214 215 216 217 218 219 220 221 222 223 224 225 226 227 228 229 230 231 232 233 234 235 236 237 238 239 240 241 242 243 244 245 246 247 248 249 250 251 252 253 254 255 256 257 258 259 260 261 262 263 264 265 266 267 268 269 270 271 272 273 274 275 276 277 278 279 280 281 282 283 284 285 286 287 288 289 290 291 292 293 294 295 296 297 298 299 300 301 302 303 304 305 306 307 308 309 310 311 312 313 314 315 316 317 318 319 320 321 322 323 324 325 326 327 328 329 330 331 332 333 334 335 336 337 338 339 340 341 342 343 344 345 346 347 348 349 350 351 352 353 354 355 356 357 358 359 360 361 362 363 364 365 366 367 368 369 370 371 372 373 374 375 376 377 378 379 380 381 382 383 384 385 386 387 388 389 390 391 392 393 394 395 396 397 398 399 400 401 402 403 404 405 406 407 408 409 410 411 412 413 414 415 416 417 418 419 420 421 422 423 424 425 426 427 428 429 430 431 432 433 434 435 436 437 438 439 440 441 442 443 444 445 446 447 448 449 450 451 452 453 454 455 456 457 458 459 460 461 462 463 464 465 466 467 468 469 470 471 472 473 474 475 476 477 478 479 480 481 482 483 484 485 486 487 488 489 490 491 492 493 494 495 496 497 498 499 500 501 502 503 504 505 506 507 508 509 
SCALARS angle float 1
LOOKUP_TABLE default
0 0 0 0 0 0 0 0 0 0.615329 5.66786 6.28319 0 0 0 0 0 0 6.16263 5.8083 5.38646 5.05814 4.80709 4.60981 4.45233 4.3345 4.25451 4.20067 4.16423 4.14059 4.12724 4.12292 4.12724 4.14059 4.16423 4.20067 4.25451 4.3345 4.45233 4.60981 4.80709 5.05814 5.38646 5.8083 6.16263 0.120553 0.47489 0.896721 1.22505 1.47609 1.67338 1.83085 1.94869 2.02868 2.08252 2.11896 2.1426 2.15594 2.16026 2.15594 2.1426 2.11896 2.08252 2.02868 1.94869 1.83085 1.67338 1.47609 1.22505 0.896721 0.47489 0.120553 0 0 0 0 0.354117 0.734916 1.17933 1.75429 2.60861 4.0658 2.21738 3.67458 4.5289 5.10386 5.54827 5.92907 0.337405 1.07092 1.91912 2.43729 2.43729 1.91912 1.07092 0.337405 5.94578 5.21227 4.36406 3.84589 3.84589 4.36406 5.21227 5.94578 0 0 0 0 0 0 0 0 0 0 0 0 0 0 0 0 0 0 5.93051 0.569425 5.71278 4.57846 1.61109 6.05759 2.48445 3.8453 1.52826 4.75245 6.26555 6.13858 4.47226 1.85867 5.67086 0.612199 2.03371 4.24763 0.647602 5.63539 1.60817 4.71593 5.78493 4.80999 1.4725 0.127435 0.0318348 6.24827 0.151122 6.13183 1.19587 5.03043 4.13951 2.15962 5.29456 0.912992 5.07016 5.42223 6.05724 2.03577 4.26335 0.389016 1.20882 5.07407 5.43523 0.847956 3.56032 2.73852 2.21044 4.0754 0.139596 4.65135 1.63223 1.599 1.35071 4.92674 1.95717 4.32527 6.24525 0.370207 5.91292 1.85757 4.45313 2.44252 1.73965 1.79683 4.48577 3.97626 5.52144 0.598719 4.08692 2.20189 4.71522 6.09147 4.43001 1.8533 0.305131 5.97482 1.46932 4.83099 4.49733 6.11427 6.12335 0.159753 6.19777 0.0853376 2.32282 6.10492 4.01323 1.27149 6.13831 0.14432 1.53146 0.945769 5.33731 1.27488 5.00611 0.46595 5.81681 1.95462 4.32328 5.41744 1.98181 4.32032 4.16684 2.11617 6.13027 5.11478 1.20701 0.671194 6.06623 0.216907 4.58686 0.0770268 1.54996 4.73307 6.27048 2.1069 4.18485 0.278033 4.26195 2.06084 5.12356 1.15886 1.75208 0.778843 5.50434 6.15326 4.96645 1.31719 5.61559 1.67485 4.59897 5.78211 2.17055 4.11768 0.142121 4.66081 0.0894308 6.19187 4.6147 1.66814 4.80773 1.70937 6.08034 0.202781 5.73729 5.09508 0.0257164 6.25743 6.08514 4.21131 2.07162 4.06763 2.21657 6.18776 0.0952165 5.06514 1.2258 2.2519 4.05247 4.58201 1.70122 1.83525 4.44549 6.06658 0.771718 5.51142 1.91953 6.20588 3.41561 0.545624 0.180377 6.10235 0.421004 4.204 2.07933 2.42417 3.87334 4.30662 1.97631 5.26934 1.01228 5.05293 3.33379 5.68368 0.362592 5.49298 0.789868 3.19299 3.10072 6.08279 1.20566 5.07742 5.07704 0.171084 2.18623 4.09924 0.550168 5.72944 0.858802 5.42008 0.517001 4.37739 2.03689 4.24472 4.75577 1.58778 4.69406 5.95781 0.324449 0.632104 5.45269 1.82261 4.45958 5.33439 0.948806 6.07634 0.206823 1.91598 0.90119 5.37733 1.50475 4.77866 5.87254 2.15374 4.12987 2.65957 1.73314 5.41317 0.869446 1.10669 0.171452 1.13256 5.14581 4.21852 1.23822 1.56114 6.21809 3.6503 1.93531 4.36572 6.18853 3.34001 0.143715 6.13945 5.22897 1.0535 4.8754 1.4078 0.347293 5.93569 6.2033 0.484724 4.01332 2.2792 1.31189 1.86243 4.40446 3.01215 4.21284 5.20818 1.07531 6.00942 1.90191 4.43159 1.8147 1.76968 4.50801 6.22711 0.0560452 1.37799 0.542655 5.74042 6.21491 1.41996 4.86313 4.35064 4.36312 1.91987 0.0222191 6.26093 2.01744 4.26478 1.77451 4.23235 2.05068 2.45647 2.0964 4.57207 1.84537 4.43799 2.14055 4.14546 1.21851 5.05387 6.02102 0.262078 4.73729 0.340274 0.152111 6.13105 6.05058 0.232592 1.74281 0.805543 5.47463 4.05934 2.22174 4.0101 2.27313 0.181876 5.87701 0.334422 5.94873 4.20974 2.0759 4.95978 5.94182 0.341243 0.0357443 1.53884 4.75331 2.16915 4.11546 5.16275 5.57997 2.12069 4.16248 1.93546 4.84427 1.43852 1.46626 4.83548 1.96528 2.2866 1.71778 4.56316 6.23918 0.0439789 4.58294 0.13041 0.0337223 4.38523 4.57973 1.70338 1.60753 4.67488 0.924684 1.40295 5.4601 0.951823 5.33142 6.10631 0.176868 1.0307 5.25245 5.33628 0.8514 6.11959 5.77706 4.45743 4.87514 4.41254 6.00942 4.19966 2.10143 5.57361 5.54172 0.104739 6.17595 0.00669104 6.27639 2.24002 0.0589778 0.0897185 6.14811 0.134318 3.39869 4.7548 4.51073 5.28775 0.995221 0.110681 6.1724 6.18758 4.97004 1.31188 
VECTORS cross_X float
1 0 0 1 0 0 1 0 0 1 0 0 1 0 0 1 0 0 1 0 0 1 0 0 1 0 0 0.988191 0.153226 0 0.153226 0.988191 0 7.95532e-14 1 0 1 0 0 1 0 0 1 0 0 1 0 0 1 0 0 1 0 0 0.0301336 0.999546 0 0.118444 0.992961 0 0.222307 0.974977 0 0.301496 0.953467 0 0.360704 0.93268 0 0.406248 0.913763 0 0.441898 0.897065 0 0.468128 0.883661 0 0.485705 0.874123 0 0.497427 0.867506 0 0.505308 0.862939 0 0.510399 0.859938 0 0.513266 0.85823 0 0.514192 0.857675 0 0.513266 0.85823 0 0.510399 0.859938 0 0.505308 0.862939 0 0.497427 0.867506 0 0.485705 0.874123 0 0.468128 0.883661 0 0.441898 0.897065 0 0.406248 0.913763 0 0.360704 0.93268 0 0.301496 0.953467 0 0.222307 0.974977 0 0.118444 0.992961 0 0.0301336 0.999546 0 0.999546 0.0301336 0 0.992961 0.118444 0 0.974977 0.222307 0 0.953467 0.301496 0 0.93268 0.360704 0 0.913763 0.406248 0 0.897065 0.441898 0 0.883661 0.468128 0 0.874123 0.485705 0 0.867506 0.497427 0 0.862939 0.505308 0 0.859938 0.510399 0 0.85823 0.513266 0 0.857675 0.514192 0 0.85823 0.513266 0 0.859938 0.510399 0 0.862939 0.505308 0 0.867506 0.497427 0 0.874123 0.485705 0 0.883661 0.468128 0 0.897065 0.441898 0 0.913763 0.406248 0 0.93268 0.360704 0 0.953467 0.301496 0 0.974977 0.222307 0 0.992961 0.118444 0 0.999546 0.0301336 0 1 0 0 1 0 0 1 0 0 1 0 0 0.996084 0.0884136 0 0.983169 0.182697 0 0.956851 0.290579 0 0.905359 0.424647 0 0.79478 0.606898 0 0.526387 0.850245 0 0.850245 0.526387 0 0.606898 0.79478 0 0.424647 0.905359 0 0.290579 0.956851 0 0.182697 0.983169 0 0.0884136 0.996084 0 0.996445 0.0842512 0 0.964374 0.264543 0 0.887096 0.461585 0 0.820036 0.572312 0 0.820036 0.572312 0 0.887096 0.461585 0 0.964374 0.264543 0 0.996445 0.0842512 0 0.0842512 0.996445 0 0.264543 0.964374 0 0.461585 0.887096 0 0.572312 0.820036 0 0.572312 0.820036 0 0.461585 0.887096 0 0.264543 0.964374 0 0.0842512 0.996445 0 1 0 0 1 0 0 1 0 0 1 0 0 1 0 0 1 0 0 1 0 0 1 0 0 1 0 0 1 0 0 1 0 0 1 0 0 1 0 0 1 0 0 1 0 0 1 0 0 1 0 0 1 0 0 0.0880558 0.996116 0 0.989884 0.141876 0 0.142119 0.98985 0 0.413396 0.910552 0 0.919978 0.39197 0 0.0563678 0.99841 0 0.813231 0.581941 0 0.572435 0.81995 0 0.927896 0.372838 0 0.373412 0.927666 0 0.004409 0.99999 0 0.0361422 0.999347 0 0.437423 0.899256 0 0.893971 0.448125 0 0.152483 0.988306 0 0.988311 0.152453 0 0.873512 0.486803 0 0.487207 0.873286 0 0.986923 0.161194 0 0.161241 0.986915 0 0.920264 0.391298 0 0.381865 0.924218 0 0.124242 0.992252 0 0.36003 0.932941 0 0.933004 0.359867 0 0.999493 0.0318533 0 0.999968 0.0079586 0 0.00872765 0.999962 0 0.999286 0.0377715 0 0.0378287 0.999284 0 0.955641 0.294534 0 0.308095 0.951356 0 0.51063 0.8598 0 0.857757 0.514055 0 0.244647 0.969612 0 0.974064 0.226271 0 0.298629 0.954369 0 0.213582 0.976925 0 0.0564551 0.998405 0 0.87326 0.487254 0 0.483771 0.875194 0 0.995275 0.0971007 0 0.954682 0.297627 0 0.297697 0.95466 0 0.210406 0.977614 0 0.977614 0.210405 0 0.62935 0.777122 0 0.774654 0.632385 0 0.851157 0.524911 0 0.524345 0.851506 0 0.999391 0.034892 0 0.396737 0.917932 0 0.917893 0.396827 0 0.921158 0.389189 0 0.943527 0.331296 0 0.332649 0.943051 0 0.882666 0.470001 0 0.470165 0.882578 0 0.00948319 0.999955 0 0.99572 0.0924196 0 0.0924338 0.995719 0 0.894094 0.44788 0 0.441719 0.897154 0 0.819288 0.573383 0 0.906907 0.421331 0 0.900791 0.434253 0 0.434384 0.900728 0 0.545286 0.83825 0 0.189287 0.981922 0 0.988819 0.149122 0 0.521892 0.853012 0 0.852277 0.52309 0 0.38203 0.92415 0 0.0479099 0.998852 0 0.446897 0.894585 0 0.894572 0.446924 0 0.997092 0.0762089 0 0.0770145 0.99703 0 0.933289 0.359126 0 0.355126 0.934818 0 0.431778 0.90198 0 0.0422169 0.999108 0 0.0399476 0.999202 0 0.999203 0.0399276 0 0.0213516 0.999772 0 0.999772 0.0213328 0 0.836076 0.548614 0 0.0445519 0.999007 0 0.537516 0.843253 0 0.949903 0.312546 0 0.0362116 0.999344 0 0.999349 0.0360722 0 0.927598 0.373579 0 0.972178 0.234245 0 0.234271 0.972171 0 0.949637 0.313351 0 0.313871 0.949466 0 0.993223 0.116224 0 0.11633 0.993211 0 0.882965 0.469439 0 0.470605 0.882344 0 0.214752 0.976669 0 0.879754 0.475429 0 0.471257 0.881996 0 0.504745 0.863269 0 0.863291 0.504706 0 0.0382189 0.999269 0 0.287965 0.957641 0 0.954817 0.297194 0 0.985955 0.167012 0 0.0542113 0.998529 0 0.99853 0.0542002 0 0.411483 0.911417 0 0.999815 0.0192555 0 0.92586 0.377867 0 0.377903 0.925845 0 0.00317689 0.999995 0 0.864458 0.502706 0 0.500854 0.865532 0 0.997585 0.0694524 0 0.484077 0.875025 0 0.87019 0.492717 0 0.285862 0.958271 0 0.958326 0.285678 0 0.905594 0.424147 0 0.981104 0.193483 0 0.193484 0.981104 0 0.0324756 0.999473 0 0.323271 0.946307 0 0.94627 0.323378 0 0.166126 0.986105 0 0.913614 0.406583 0 0.408723 0.912658 0 0.124942 0.992164 0 0.85635 0.516396 0 0.515316 0.857 0 0.999369 0.0355227 0 0.394565 0.918868 0 0.99975 0.0223558 0 0.022826 0.999739 0 0.40513 0.914259 0 0.914293 0.405052 0 0.360557 0.932737 0 0.91007 0.414454 0 0.0506885 0.998715 0 0.998715 0.0506735 0 0.13605 0.990702 0 0.292677 0.956211 0 0.999979 0.00642906 0 0.00643961 0.999979 0 0.0494903 0.998775 0 0.495117 0.868826 0 0.868858 0.495061 0 0.525999 0.850485 0 0.850352 0.526214 0 0.0238537 0.999715 0 0.999717 0.0238019 0 0.299828 0.953993 0 0.953411 0.301676 0 0.845671 0.533705 0 0.529219 0.848485 0 0.412588 0.910918 0 0.910913 0.412598 0 0.896579 0.442884 0 0.443433 0.896308 0 0.0541248 0.998534 0 0.981447 0.191735 0 0.191748 0.981444 0 0.88705 0.461674 0 0.0193251 0.999813 0 0.657045 0.753851 0 0.990711 0.135983 0 0.998983 0.0450791 0 0.0451934 0.998978 0 0.994466 0.105057 0 0.496704 0.86792 0 0.867902 0.496735 0 0.821908 0.56962 0 0.566671 0.823944 0 0.474277 0.880376 0 0.880407 0.474219 0 0.250756 0.96805 0 0.968148 0.250377 0 0.302738 0.953074 0 0.672327 0.740254 0 0.149316 0.98879 0 0.995894 0.0905238 0 0.196268 0.98055 0 0.980567 0.196186 0 0.697963 0.716134 0 0.714296 0.699844 0 0.0500773 0.998745 0 0.954917 0.296873 0 0.296896 0.95491 0 0.296988 0.954881 0 0.999085 0.0427578 0 0.854318 0.51975 0 0.519262 0.854615 0 0.990556 0.137109 0 0.137994 0.990433 0 0.97704 0.213055 0 0.214105 0.976811 0 0.991659 0.128891 0 0.458625 0.88863 0 0.873123 0.4875 0 0.487843 0.872932 0 0.372641 0.927976 0 0.922246 0.386603 0 0.386912 0.922117 0 0.0812534 0.996693 0 0.996712 0.0810233 0 0.98754 0.157369 0 0.206136 0.978523 0 0.897974 0.440048 0 0.440271 0.897865 0 0.234981 0.972 0 0.971999 0.234983 0 0.051688 0.998663 0 0.998664 0.0516828 0 0.887458 0.460888 0 0.974728 0.223396 0 0.224533 0.974466 0 0.930072 0.367377 0 0.367325 0.930093 0 0.102482 0.994735 0 0.858512 0.512793 0 0.512701 0.858567 0 0.786982 0.616975 0 0.907592 0.419854 0 0.215794 0.976439 0 0.97647 0.215654 0 0.961969 0.273157 0 0.999082 0.0428499 0 0.960183 0.279371 0 0.280527 0.959846 0 0.493551 0.869717 0 0.95247 0.304634 0 0.924801 0.380452 0 0.0162721 0.999868 0 0.61171 0.791082 0 0.885222 0.46517 0 0.461217 0.887287 0 0.0236615 0.99972 0 0.671176 0.741298 0 0.999355 0.0359211 0 0.0359255 0.999354 0 0.260514 0.96547 0 0.965517 0.260342 0 0.344726 0.938703 0 0.938703 0.344728 0 0.996233 0.0867143 0 0.0867656 0.996229 0 0.0199711 0.999801 0 0.992667 0.120885 0 0.537496 0.843266 0 0.842009 0.539463 0 0.946698 0.322123 0 0.893549 0.448965 0 0.452602 0.891713 0 0.729616 0.683857 0 0.494784 0.869016 0 0.265527 0.964103 0 0.964083 0.265601 0 0.0683874 0.997659 0 0.889075 0.457762 0 0.446543 0.894762 0 0.898842 0.438273 0 0.903718 0.428128 0 0.429369 0.903129 0 0.0140171 0.999902 0 0.999902 0.0140108 0 0.941245 0.337725 0 0.990812 0.135248 0 0.135275 0.990808 0 0.0170673 0.999854 0 0.93765 0.347582 0 0.347603 0.937642 0 0.464558 0.885543 0 0.461794 0.886987 0 0.88701 0.461749 0 0.999985 0.00555473 0 0.00556404 0.999985 0 0.875484 0.483247 0 0.483458 0.875367 0 0.9032 0.42922 0 0.49054 0.871419 0 0.871439 0.490505 0 0.817283 0.576237 0 0.865774 0.500435 0 0.41485 0.90989 0 0.895456 0.44515 0 0.445112 0.895475 0 0.860199 0.509959 0 0.509351 0.860559 0 0.953959 0.299937 0 0.302514 0.953145 0 0.0654951 0.997853 0 0.997854 0.0654726 0 0.376925 0.926244 0 0.996384 0.0849659 0 0.999277 0.0380186 0 0.0380255 0.999277 0 0.0581183 0.99831 0 0.99831 0.0581154 0 0.906574 0.422048 0 0.97979 0.200027 0 0.200765 0.979639 0 0.527759 0.849394 0 0.849671 0.527313 0 0.538176 0.842832 0 0.842827 0.538185 0 0.998966 0.0454532 0 0.10137 0.994849 0 0.996507 0.083508 0 0.0835155 0.996506 0 0.495458 0.868632 0 0.868327 0.495991 0 0.324847 0.945766 0 0.0852374 0.996361 0 0.996363 0.0852073 0 0.99996 0.00893597 0 0.926908 0.37529 0 0.373211 0.927746 0 0.856531 0.516096 0 0.515791 0.856714 0 0.27646 0.961026 0 0.1749 0.984586 0 0.862719 0.505683 0 0.505686 0.862718 0 0.885203 0.465205 0 0.352021 0.935992 0 0.936027 0.351928 0 0.933564 0.35841 0 0.354077 0.935216 0 0.881711 0.47179 0 0.84101 0.54102 0 0.909197 0.416366 0 0.416877 0.908963 0 0.0110005 0.999939 0 0.99994 0.0109945 0 0.412377 0.911013 0 0.999469 0.0325967 0 0.999964 0.00843047 0 0.456884 0.889526 0 0.413108 0.910682 0 0.91069 0.413091 0 0.920327 0.391151 0 0.391329 0.920251 0 0.973399 0.229117 0 0.93912 0.34359 0 0.204322 0.978904 0 0.971822 0.235717 0 0.235702 0.971825 0 0.044204 0.999023 0 0.999023 0.0442027 0 0.966985 0.254834 0 0.254841 0.966983 0 0.234522 0.972111 0 0.977433 0.211246 0 0.0408878 0.999164 0 0.126193 0.992006 0 0.440753 0.897628 0 0.344786 0.938681 0 0.450801 0.892624 0 0.0683886 0.997659 0 0.497644 0.867381 0 0.865145 0.501522 0 0.176465 0.984307 0 0.184307 0.982869 0 0.999657 0.0261818 0 0.0268056 0.999641 0 0.999999 0.00167276 0 0.00169848 0.999999 0 0.847252 0.53119 0 0.999891 0.0147439 0 0.999748 0.0224277 0 0.0337617 0.99943 0 0.999436 0.0335732 0 0.660228 0.751065 0 0.372866 0.927885 0 0.428755 0.903421 0 0.246297 0.969194 0 0.969207 0.246246 0 0.999617 0.0276668 0 0.0276928 0.999616 0 0.0238999 0.999714 0 0.322421 0.946596 0 0.946698 0.322122 0 
VECTORS VY float