# vtk DataFile Version 3.0
Generated by GMDS VTK Writer

ASCII
DATASET UNSTRUCTURED_GRID
POINTS 257 float
0 0 0
0 5 0
1 5 0
1 0 0
5 2 0
5 3 0
4 3 0
4 2 0
1.5 2.5 0
1.5 1.5 0
1.5 3.5 0
2 2.5 0
0 3 0
0 2 0
0.5 2 0
0.5 3 0
1 3.5 0
1 1.5 0
0.287931 4.99734 0
0.572588 4.95606 0
0.848852 4.87531 0
1.11638 4.76892 0
1.37628 4.64497 0
1.6303 4.50934 0
1.88078 4.36726 0
2.1292 4.22159 0
2.37652 4.07406 0
2.62348 3.92594 0
2.8708 3.77841 0
3.11922 3.63274 0
3.3697 3.49066 0
3.62372 3.35503 0
3.88362 3.23108 0
4.15115 3.12469 0
4.42741 3.04394 0
4.71207 3.00266 0
0.287931 0.00266285 0
0.572588 0.0439352 0
0.848852 0.124689 0
1.11638 0.231083 0
1.37628 0.355027 0
1.6303 0.490658 0
1.88078 0.632736 0
2.1292 0.778407 0
2.37652 0.925942 0
2.62348 1.07406 0
2.8708 1.22159 0
3.11922 1.36726 0
3.3697 1.50934 0
3.62372 1.64497 0
3.88362 1.76892 0
4.15115 1.87531 0
4.42741 1.95606 0
4.71207 1.99734 0
5 2.75 0
5 2.5 0
5 2.25 0
1.98519 2.7416 0
1.93887 2.97914 0
1.85426 3.20568 0
1.71526 3.40258 0
1.71526 1.59742 0
1.85426 1.79432 0
1.93887 2.02086 0
1.98519 2.2584 0
0.270512 3.01192 0
0.526358 3.09718 0
0.75 3.25 0
0.973642 3.40282 0
1.22949 3.48808 0
1.22949 1.51192 0
0.973642 1.59718 0
0.75 1.75 0
0.526358 1.90282 0
0.270512 1.98808 0
0 4.71429 0
0 4.42857 0
0 4.14286 0
0 3.85714 0
0 3.57143 0
0 3.28571 0
0 1.71429 0
0 1.42857 0
0 1.14286 0
0 0.857143 0
0 0.571429 0
0 0.285714 0
3.01321 2.57479 0
2.64791 3.07916 0
2.62567 1.90974 0
0.727651 0.888765 0
0.727651 4.11123 0
3.7604 2.49832 0
1.37203 0.962919 0
1.37203 4.03708 0
2.51849 2.58733 0
2.15441 1.37949 0
2.15441 3.62051 0
4.52025 2.56059 0
3.15332 3.02309 0
3.16117 1.99051 0
1.78957 1.16664 0
1.78957 3.83336 0
0.507626 1.34288 0
0.507626 3.65712 0
0.421015 4.48293 0
0.421015 0.517072 0
2.37998 2.20771 0
3.60425 2.08888 0
3.60876 2.90339 0
2.26203 1.80278 0
2.2567 3.21453 0
2.58425 1.50418 0
2.58425 3.49582 0
1.08396 0.644849 0
1.08396 4.35515 0
0.983863 1.20138 0
0.983863 3.79862 0
4.11227 2.71934 0
4.10865 2.27541 0
2.76131 2.25453 0
2.30889 2.8617 0
0.371277 0.953005 0
0.371277 4.047 0
2.80281 2.78467 0
3.38328 2.61306 0
2.9462 3.30806 0
2.96138 1.69777 0
0.33053 1.62051 0
0.33053 3.37949 0
0.797409 0.42458 0
0.797409 4.57542 0
1.63032 4.21954 0
1.63032 0.780458 0
2.114 1.10156 0
2.114 3.89844 0
3.26959 2.26734 0
4.75354 2.39969 0
4.74161 2.66388 0
1.51729 1.19721 0
1.51729 3.80279 0
1.91841 1.35263 0
1.91841 3.64737 0
2.31561 2.47077 0
1.41247 0.650551 0
1.41247 4.34945 0
3.91742 2.03425 0
3.91459 2.96448 0
0.784487 1.41825 0
0.784487 3.58175 0
3.4218 1.85703 0
3.42324 3.14548 0
2.09671 1.66151 0
2.08387 3.3516 0
1.05968 4.07225 0
1.05968 0.927748 0
2.1763 2.05509 0
2.8481 1.99673 0
1.24221 1.23579 0
1.24221 3.76421 0
2.44416 1.30971 0
2.44416 3.69029 0
0.240111 4.2663 0
0.240111 0.733695 0
2.77489 2.49446 0
3.19189 2.73913 0
2.51305 2.84306 0
0.287843 4.72732 0
0.287843 0.272682 0
4.48424 2.23343 0
4.37208 2.76531 0
2.88958 3.04805 0
0.730031 1.16567 0
0.730031 3.83433 0
3.00869 2.29406 0
0.265794 1.22907 0
0.265794 3.77093 0
3.51169 2.36159 0
0.579065 1.58493 0
0.579065 3.41507 0
1.67609 3.61023 0
1.67609 1.38977 0
1.86102 4.08316 0
1.86102 0.916838 0
3.20234 3.32 0
3.20665 1.68438 0
2.41781 1.97583 0
0.49531 0.740964 0
0.49531 4.25904 0
2.33666 3.43806 0
2.33672 1.56963 0
2.8183 1.462 0
2.81577 3.53897 0
2.18612 2.6846 0
0.605979 0.303447 0
0.605979 4.69655 0
2.55287 2.36 0
2.15402 3.01538 0
2.41839 3.04964 0
2.06563 1.86691 0
3.99063 2.49786 0
2.58407 2.11955 0
2.71916 1.70492 0
2.73005 3.28761 0
3.39356 2.83871 0
3.83125 2.69859 0
2.49094 1.74451 0
3.69016 1.87881 0
3.69079 3.11989 0
3.78183 2.2762 0
2.18036 2.28637 0
2.49566 3.2608 0
0.857618 0.68156 0
0.857618 4.31844 0
4.21777 2.07489 0
3.37981 2.09844 0
2.66769 3.68588 0
2.6682 1.31431 0
4.26469 2.50866 0
2.05754 3.15327 0
1.02203 0.431845 0
1.02203 4.56816 0
1.05044 1.40113 0
1.05044 3.59887 0
4.20197 2.92074 0
4.80425 2.18268 0
0.19942 1.78779 0
0.19942 3.21221 0
3.01177 2.85967 0
0.189794 4.52388 0
0.189794 0.476118 0
0.161129 1 0
0.161129 4 0
4.82219 2.83776 0
1.2243 0.783762 0
1.2243 4.21624 0
4.59927 2.81236 0
1.63066 1.01522 0
1.63066 3.98478 0
1.21714 0.515894 0
1.21714 4.48411 0
1.89491 1.55736 0
1.89435 3.44321 0
1.39983 1.34719 0
1.39983 3.65281 0
0.520476 1.11588 0
0.520476 3.88412 0
0.875306 1.04589 0
0.875306 3.95411 0
2.32379 3.86922 0
2.32379 1.13078 0
3.22973 2.475 0
2.11462 2.85648 0
3.5938 2.62421 0
2.36843 2.68949 0
0.65083 4.40727 0
0.65083 0.592731 0

CELLS 416 1664
3 1 75 167 
3 0 168 86 
3 1 167 18 
3 0 36 168 
3 101 134 141 
3 102 142 135 
3 96 141 134 
3 97 135 142 
3 55 138 137 
3 81 82 128 
3 79 80 129 
3 89 202 157 
3 82 175 128 
3 79 129 176 
3 100 157 127 
3 87 228 124 
3 127 157 202 
3 54 138 55 
3 119 169 218 
3 29 126 184 
3 47 185 127 
3 122 187 90 
3 123 91 188 
3 245 122 90 
3 246 91 123 
3 95 124 166 
3 95 164 124 
3 93 158 155 
3 94 154 159 
3 119 214 169 
3 153 97 242 
3 152 241 96 
3 88 166 124 
3 116 155 158 
3 117 159 154 
3 66 179 129 
3 73 128 178 
3 120 174 164 
3 87 124 164 
3 103 128 175 
3 104 176 129 
3 88 124 171 
3 241 141 96 
3 242 97 142 
3 87 164 174 
3 99 126 171 
3 71 72 148 
3 67 68 149 
3 19 167 195 
3 37 194 168 
3 87 165 228 
3 18 167 19 
3 36 37 168 
3 23 145 132 
3 41 133 144 
3 99 184 126 
3 100 127 185 
3 118 205 200 
3 125 253 204 
3 73 226 128 
3 66 129 227 
3 23 132 24 
3 41 42 133 
3 47 127 191 
3 29 192 126 
3 109 204 253 
3 236 98 138 
3 67 149 179 
3 72 178 148 
3 119 200 209 
3 170 98 236 
3 122 245 175 
3 123 176 246 
3 55 137 56 
3 81 128 226 
3 80 227 129 
3 122 175 231 
3 123 232 176 
3 94 132 145 
3 93 144 133 
3 66 67 179 
3 72 73 178 
3 38 220 130 
3 20 131 221 
3 63 156 64 
3 30 151 31 
3 48 49 150 
3 98 137 138 
3 73 74 226 
3 65 66 227 
3 118 147 205 
3 25 135 26 
3 43 44 134 
3 102 135 182 
3 101 183 134 
3 29 184 30 
3 47 48 185 
3 98 218 169 
3 51 214 146 
3 119 209 146 
3 90 172 245 
3 91 246 173 
3 25 182 135 
3 43 134 183 
3 100 136 174 
3 103 178 128 
3 104 129 179 
3 11 210 143 
3 30 184 151 
3 48 150 185 
3 119 146 214 
3 50 51 146 
3 32 147 33 
3 88 171 203 
3 38 39 220 
3 20 221 21 
3 93 139 158 
3 94 159 140 
3 92 200 205 
3 89 157 201 
3 101 181 139 
3 102 140 180 
3 126 203 171 
3 107 196 143 
3 97 249 135 
3 96 134 250 
3 120 201 157 
3 118 218 170 
3 11 64 210 
3 64 156 210 
3 251 177 125 
3 95 143 196 
3 111 189 153 
3 110 152 190 
3 136 177 251 
3 38 130 194 
3 20 195 131 
3 40 41 144 
3 22 145 23 
3 33 147 224 
3 97 189 161 
3 96 160 190 
3 90 212 155 
3 91 154 213 
3 97 153 189 
3 96 190 152 
3 92 209 200 
3 113 161 189 
3 112 190 160 
3 136 215 177 
3 101 141 181 
3 102 180 142 
3 116 148 172 
3 117 173 149 
3 11 143 193 
3 52 53 169 
3 53 225 169 
3 87 174 251 
3 98 170 218 
3 106 168 194 
3 105 195 167 
3 118 224 147 
3 94 238 132 
3 93 133 237 
3 98 169 137 
3 84 85 163 
3 76 77 162 
3 136 251 174 
3 54 233 138 
3 108 177 215 
3 84 163 231 
3 77 232 162 
3 100 174 157 
3 97 161 249 
3 96 250 160 
3 24 132 182 
3 42 183 133 
3 10 180 244 
3 9 243 181 
3 44 250 134 
3 26 135 249 
3 137 169 225 
3 114 155 212 
3 115 213 154 
3 90 155 247 
3 91 248 154 
3 125 204 165 
3 94 140 238 
3 93 237 139 
3 61 181 241 
3 60 242 180 
3 101 237 183 
3 102 182 238 
3 122 231 163 
3 123 162 232 
3 99 151 184 
3 100 185 150 
3 11 193 57 
3 46 47 191 
3 28 192 29 
3 109 147 208 
3 108 207 146 
3 56 137 225 
3 100 215 136 
3 95 196 164 
3 140 244 180 
3 139 181 243 
3 50 146 207 
3 32 208 147 
3 103 172 148 
3 104 149 173 
3 101 139 237 
3 102 238 140 
3 45 160 250 
3 27 249 161 
3 133 183 237 
3 132 238 182 
3 120 164 196 
3 71 148 222 
3 68 223 149 
3 103 175 245 
3 104 246 176 
3 44 45 250 
3 26 249 27 
3 141 241 181 
3 142 180 242 
3 37 38 194 
3 19 195 20 
3 103 148 178 
3 104 179 149 
3 39 40 239 
3 21 240 22 
3 116 222 148 
3 117 149 223 
3 120 157 174 
3 12 65 227 
3 13 226 74 
3 13 81 226 
3 12 227 80 
3 4 225 53 
3 123 188 162 
3 122 163 187 
3 95 254 143 
3 105 162 188 
3 106 187 163 
3 82 83 175 
3 78 79 176 
3 121 198 197 
3 40 144 239 
3 22 240 145 
3 4 56 225 
3 111 197 198 
3 63 199 156 
3 107 143 210 
3 99 204 151 
3 88 198 166 
3 107 156 186 
3 90 187 256 
3 91 255 188 
3 110 186 156 
3 121 166 198 
3 90 256 212 
3 91 213 255 
3 109 151 204 
3 42 43 183 
3 24 182 25 
3 10 60 180 
3 9 181 61 
3 39 239 220 
3 21 221 240 
3 62 152 199 
3 9 70 243 
3 10 244 69 
3 108 146 209 
3 112 202 206 
3 52 169 214 
3 109 205 147 
3 5 35 233 
3 62 241 152 
3 59 153 242 
3 116 172 247 
3 117 248 173 
3 110 156 199 
3 108 150 207 
3 109 208 151 
3 75 76 229 
3 85 86 230 
3 93 234 144 
3 94 145 235 
3 83 231 175 
3 78 176 232 
3 112 206 190 
3 107 210 156 
3 75 229 167 
3 86 168 230 
3 49 207 150 
3 31 151 208 
3 110 199 152 
3 57 252 58 
3 100 150 215 
3 59 219 153 
3 105 255 195 
3 106 194 256 
3 114 212 220 
3 115 221 213 
3 131 195 255 
3 130 256 194 
3 69 159 223 
3 70 222 158 
3 130 220 212 
3 131 213 221 
3 61 241 62 
3 59 242 60 
3 105 229 162 
3 106 163 230 
3 62 199 63 
3 111 153 219 
3 105 167 229 
3 106 230 168 
3 108 215 150 
3 87 251 165 
3 117 223 159 
3 116 158 222 
3 58 219 59 
3 109 253 205 
3 121 254 166 
3 5 233 54 
3 125 165 251 
3 95 166 254 
3 70 158 243 
3 69 244 159 
3 49 50 207 
3 31 208 32 
3 140 159 244 
3 139 243 158 
3 99 165 204 
3 143 254 193 
3 33 224 34 
3 107 201 196 
3 34 236 35 
3 51 52 214 
3 113 189 211 
3 45 46 217 
3 27 216 28 
3 117 154 248 
3 116 247 155 
3 112 160 217 
3 113 216 161 
3 113 211 203 
3 118 200 218 
3 120 196 201 
3 111 211 189 
3 34 224 170 
3 94 235 154 
3 93 155 234 
3 70 71 222 
3 68 69 223 
3 113 203 192 
3 112 191 202 
3 108 209 177 
3 58 252 197 
3 34 170 236 
3 83 84 231 
3 77 78 232 
3 115 154 235 
3 114 234 155 
3 125 177 253 
3 126 192 203 
3 127 202 191 
3 89 206 202 
3 110 206 186 
3 145 240 235 
3 144 234 239 
3 99 228 165 
3 107 186 201 
3 76 162 229 
3 85 230 163 
3 115 235 240 
3 114 239 234 
3 45 217 160 
3 27 161 216 
3 111 198 211 
3 92 177 209 
3 92 253 177 
3 112 217 191 
3 113 192 216 
3 89 201 186 
3 118 170 224 
3 58 197 219 
3 89 186 206 
3 110 190 206 
3 124 228 171 
3 46 191 217 
3 28 216 192 
3 99 171 228 
3 90 247 172 
3 91 173 248 
3 111 219 197 
3 88 203 211 
3 88 211 198 
3 103 245 172 
3 104 173 246 
3 119 218 200 
3 57 193 252 
3 138 233 236 
3 106 256 187 
3 105 188 255 
3 121 252 193 
3 121 193 254 
3 35 236 233 
3 114 220 239 
3 115 240 221 
3 121 197 252 
3 130 212 256 
3 131 255 213 
3 92 205 253 

CELL_TYPES 416
5 
5 
5 
5 
5 
5 
5 
5 
5 
5 
5 
5 
5 
5 
5 
5 
5 
5 
5 
5 
5 
5 
5 
5 
5 
5 
5 
5 
5 
5 
5 
5 
5 
5 
5 
5 
5 
5 
5 
5 
5 
5 
5 
5 
5 
5 
5 
5 
5 
5 
5 
5 
5 
5 
5 
5 
5 
5 
5 
5 
5 
5 
5 
5 
5 
5 
5 
5 
5 
5 
5 
5 
5 
5 
5 
5 
5 
5 
5 
5 
5 
5 
5 
5 
5 
5 
5 
5 
5 
5 
5 
5 
5 
5 
5 
5 
5 
5 
5 
5 
5 
5 
5 
5 
5 
5 
5 
5 
5 
5 
5 
5 
5 
5 
5 
5 
5 
5 
5 
5 
5 
5 
5 
5 
5 
5 
5 
5 
5 
5 
5 
5 
5 
5 
5 
5 
5 
5 
5 
5 
5 
5 
5 
5 
5 
5 
5 
5 
5 
5 
5 
5 
5 
5 
5 
5 
5 
5 
5 
5 
5 
5 
5 
5 
5 
5 
5 
5 
5 
5 
5 
5 
5 
5 
5 
5 
5 
5 
5 
5 
5 
5 
5 
5 
5 
5 
5 
5 
5 
5 
5 
5 
5 
5 
5 
5 
5 
5 
5 
5 
5 
5 
5 
5 
5 
5 
5 
5 
5 
5 
5 
5 
5 
5 
5 
5 
5 
5 
5 
5 
5 
5 
5 
5 
5 
5 
5 
5 
5 
5 
5 
5 
5 
5 
5 
5 
5 
5 
5 
5 
5 
5 
5 
5 
5 
5 
5 
5 
5 
5 
5 
5 
5 
5 
5 
5 
5 
5 
5 
5 
5 
5 
5 
5 
5 
5 
5 
5 
5 
5 
5 
5 
5 
5 
5 
5 
5 
5 
5 
5 
5 
5 
5 
5 
5 
5 
5 
5 
5 
5 
5 
5 
5 
5 
5 
5 
5 
5 
5 
5 
5 
5 
5 
5 
5 
5 
5 
5 
5 
5 
5 
5 
5 
5 
5 
5 
5 
5 
5 
5 
5 
5 
5 
5 
5 
5 
5 
5 
5 
5 
5 
5 
5 
5 
5 
5 
5 
5 
5 
5 
5 
5 
5 
5 
5 
5 
5 
5 
5 
5 
5 
5 
5 
5 
5 
5 
5 
5 
5 
5 
5 
5 
5 
5 
5 
5 
5 
5 
5 
5 
5 
5 
5 
5 
5 
5 
5 
5 
5 
5 
5 
5 
5 
5 
5 
5 
5 
5 
5 
5 
5 
5 
5 
5 
5 
5 
5 
5 
5 
5 
5 
5 
5 
5 
5 
5 
5 
5 
5 
5 
5 
5 
5 
5 
5 
5 
POINT_DATA 257
SCALARS GMDS_ID int 1
LOOKUP_TABLE default
0 1 2 3 4 5 6 7 8 9 10 11 12 13 14 15 16 17 18 19 20 21 22 23 24 25 26 27 28 29 30 31 32 33 34 35 36 37 38 39 40 41 42 43 44 45 46 47 48 49 50 51 52 53 54 55 56 57 58 59 60 61 62 63 64 65 66 67 68 69 70 71 72 73 74 75 76 77 78 79 80 81 82 83 84 85 86 87 88 89 90 91 92 93 94 95 96 97 98 99 100 101 102 103 104 105 106 107 108 109 110 111 112 113 114 115 116 117 118 119 120 121 122 123 124 125 126 127 128 129 130 131 132 133 134 135 136 137 138 139 140 141 142 143 144 145 146 147 148 149 150 151 152 153 154 155 156 157 158 159 160 161 162 163 164 165 166 167 168 169 170 171 172 173 174 175 176 177 178 179 180 181 182 183 184 185 186 187 188 189 190 191 192 193 194 195 196 197 198 199 200 201 202 203 204 205 206 207 208 209 210 211 212 213 214 215 216 217 218 219 220 221 222 223 224 225 226 227 228 229 230 231 232 233 234 235 236 237 238 239 240 241 242 243 244 245 246 247 248 249 250 251 252 253 254 255 256 
SCALARS angle float 1
LOOKUP_TABLE default
0 0 0 0 0 0 0 0 0 0.761916 5.52127 6.28319 0 0 0 0 0 0 5.97672 5.42645 4.95738 4.63616 4.41235 4.27042 4.19055 4.14672 4.12697 4.12697 4.14672 4.19055 4.27042 4.41235 4.63616 4.95738 5.42645 5.97672 0.306469 0.856738 1.32581 1.64703 1.87083 2.01276 2.09263 2.13647 2.15621 2.15621 2.13647 2.09263 2.01276 1.87083 1.64703 1.32581 0.856738 0.306469 0 0 0 0.507619 1.1 1.94429 3.52108 2.76211 4.3389 5.18319 5.77557 0.731436 1.84227 2.39775 1.84227 0.731436 5.55175 4.44092 3.88543 4.44092 5.55175 0 0 0 0 0 0 0 0 0 0 0 0 4.35254 4.44584 2.18896 0.182317 6.09699 0.724434 1.51188 4.77999 6.04197 2.56439 3.92232 6.2777 4.37691 1.92496 2.18094 4.14739 5.17546 1.10655 5.83853 0.444109 5.67478 1.69882 4.57468 4.33588 3.12794 2.28206 4.13553 1.22139 5.06135 5.25311 1.02599 5.6922 0.986579 1.14549 0.349077 6.28082 0.00148255 4.70809 4.30717 4.2654 2.05416 4.92041 1.36237 1.10974 5.17326 4.26642 2.0257 2.26674 4.07557 1.88144 0.115964 6.13639 1.62807 4.67946 2.54322 3.85723 6.06453 1.74433 4.54347 1.49516 4.78226 4.71156 1.57124 1.85325 4.43182 3.84562 3.17035 5.97864 0.288617 5.18781 1.98522 5.44942 0.822079 2.26618 4.09278 6.1679 0.114811 5.64611 4.3945 5.79321 5.97248 0.310457 0.649837 5.75161 4.36302 5.46926 0.810337 1.91386 6.06637 0.21611 1.71252 4.25222 2.03105 4.35978 1.94727 4.17702 2.11938 4.30424 1.98822 4.99163 0.303605 5.9784 3.97016 2.76481 2.15161 4.18017 0.320971 0.917487 5.36555 5.96649 0.855092 5.48545 4.74715 0.443522 6.19447 2.17234 4.24923 4.47163 5.11023 2.64237 1.72872 4.54921 1.41322 5.73865 4.19755 0.857064 5.4245 1.08952 1.81777 4.13862 2.18893 0.214732 1.21159 1.42532 4.85804 5.02804 1.25427 5.46734 0.0678837 6.16645 0.116636 4.4212 6.1515 0.131474 6.27346 0.00951504 6.00761 1.29994 4.98335 5.97703 2.02813 4.27814 1.4358 4.8481 3.09623 3.32104 5.63759 0.630011 5.9437 0.337327 5.80338 0.471976 4.10335 2.21065 2.68984 0.535301 4.69392 0.0462911 5.57005 0.712255 
VECTORS cross_X float
1 0 0 1 0 0 1 0 0 1 0 0 1 0 0 1 0 0 1 0 0 1 0 0 1 0 0 0.981914 0.189329 0 0.189329 0.981914 0 1.1286e-13 1 0 1 0 0 1 0 0 1 0 0 1 0 0 1 0 0 1 0 0 0.0765422 0.997066 0 0.212551 0.97715 0 0.325417 0.945571 0 0.40022 0.916419 0 0.450841 0.892604 0 0.482224 0.876048 0 0.499618 0.866246 0 0.509082 0.860718 0 0.513323 0.858195 0 0.513323 0.858195 0 0.509082 0.860718 0 0.499618 0.866246 0 0.482224 0.876048 0 0.450841 0.892604 0 0.40022 0.916419 0 0.325417 0.945571 0 0.212551 0.97715 0 0.0765422 0.997066 0 0.997066 0.0765422 0 0.97715 0.212551 0 0.945571 0.325417 0 0.916419 0.40022 0 0.892604 0.450841 0 0.876048 0.482224 0 0.866246 0.499618 0 0.860718 0.509082 0 0.858195 0.513323 0 0.858195 0.513323 0 0.860718 0.509082 0 0.866246 0.499618 0 0.876048 0.482224 0 0.892604 0.450841 0 0.916419 0.40022 0 0.945571 0.325417 0 0.97715 0.212551 0 0.997066 0.0765422 0 1 0 0 1 0 0 1 0 0 0.991958 0.126564 0 0.962425 0.271546 0 0.884175 0.467157 0 0.636944 0.77091 0 0.77091 0.636944 0 0.467157 0.884175 0 0.271546 0.962425 0 0.126564 0.991958 0 0.983328 0.181842 0 0.895801 0.444456 0 0.825653 0.564179 0 0.895801 0.444456 0 0.983328 0.181842 0 0.181842 0.983328 0 0.444456 0.895801 0 0.564179 0.825653 0 0.444456 0.895801 0 0.181842 0.983328 0 1 0 0 1 0 0 1 0 0 1 0 0 1 0 0 1 0 0 1 0 0 1 0 0 1 0 0 1 0 0 1 0 0 1 0 0 0.464139 0.885763 0 0.443353 0.896347 0 0.853963 0.520333 0 0.998961 0.0455635 0 0.0465317 0.998917 0 0.983645 0.18012 0 0.929416 0.369035 0 0.367016 0.930215 0 0.0602685 0.998182 0 0.80144 0.598075 0 0.556541 0.83082 0 0.00137077 0.999999 0 0.458734 0.888574 0 0.886421 0.462879 0 0.855006 0.518618 0 0.508938 0.860803 0 0.273406 0.961899 0 0.961979 0.273124 0 0.110936 0.993828 0 0.993843 0.110799 0 0.151516 0.988455 0 0.91116 0.412053 0 0.414256 0.91016 0 0.467823 0.883822 0 0.709517 0.704689 0 0.841623 0.540066 0 0.511488 0.859291 0 0.953743 0.300624 0 0.30073 0.953709 0 0.254681 0.967025 0 0.967285 0.253693 0 0.147209 0.989105 0 0.969737 0.244152 0 0.959275 0.282474 0 0.996194 0.0871585 0 0.000591564 1 0 1 0.000370637 0 0.383675 0.923468 0 0.474154 0.880442 0 0.483322 0.875442 0 0.871011 0.491263 0 0.334141 0.942523 0 0.942557 0.334046 0 0.961761 0.273889 0 0.273934 0.961749 0 0.483099 0.875566 0 0.874484 0.485055 0 0.843685 0.536838 0 0.524309 0.851528 0 0.891405 0.453208 0 0.99958 0.0289868 0 0.0366911 0.999327 0 0.918305 0.395872 0 0.390277 0.920697 0 0.804595 0.593824 0 0.569987 0.821654 0 0.0546373 0.998506 0 0.906413 0.422392 0 0.421347 0.9069 0 0.93095 0.365147 0 0.366487 0.930423 0 0.382875 0.9238 0 0.923837 0.382786 0 0.894577 0.446914 0 0.446492 0.894788 0 0.572369 0.819996 0 0.702006 0.712171 0 0.076064 0.997103 0 0.997398 0.0720916 0 0.270433 0.962739 0 0.879349 0.476179 0 0.206935 0.978355 0 0.978955 0.204076 0 0.843761 0.536719 0 0.520641 0.853776 0 0.0288172 0.999585 0 0.999588 0.0286989 0 0.158596 0.987344 0 0.454821 0.890583 0 0.122187 0.992507 0 0.0775972 0.996985 0 0.99699 0.0775363 0 0.986833 0.161745 0 0.132502 0.991183 0 0.461815 0.886976 0 0.202079 0.979369 0 0.97955 0.201201 0 0.887703 0.460417 0 0.0541776 0.998531 0 0.998541 0.0540013 0 0.909744 0.415171 0 0.486204 0.873846 0 0.873835 0.486223 0 0.462534 0.886602 0 0.883827 0.467815 0 0.502546 0.86455 0 0.862886 0.505399 0 0.474799 0.880094 0 0.878991 0.476838 0 0.317308 0.948323 0 0.997121 0.0758284 0 0.0761227 0.997098 0 0.546565 0.837417 0 0.77048 0.637464 0 0.858786 0.512335 0 0.501865 0.864946 0 0.996782 0.0801566 0 0.973809 0.227366 0 0.227401 0.973801 0 0.0790914 0.996867 0 0.977237 0.212148 0 0.198115 0.980179 0 0.37464 0.927171 0 0.993859 0.110653 0 0.0221781 0.999754 0 0.856118 0.51678 0 0.486857 0.873482 0 0.437565 0.899187 0 0.289054 0.957313 0 0.789629 0.613585 0 0.908055 0.418851 0 0.420043 0.907504 0 0.938235 0.346 0 0.135713 0.990748 0 0.498103 0.867118 0 0.977133 0.21263 0 0.213027 0.977046 0 0.963133 0.269024 0 0.898506 0.438962 0 0.510823 0.859686 0 0.853967 0.520327 0 0.998559 0.0536571 0 0.954477 0.298286 0 0.937183 0.348837 0 0.348796 0.937199 0 0.308662 0.951172 0 0.951239 0.308455 0 0.20255 0.979272 0 0.999856 0.0169701 0 0.0291804 0.999574 0 0.999575 0.0291549 0 0.448866 0.893599 0 0.0329149 0.999458 0 0.99946 0.0328626 0 0.00243019 0.999997 0 0.999997 0.00237876 0 0.0688393 0.997628 0 0.947656 0.319294 0 0.31927 0.947664 0 0.0764651 0.997072 0 0.87419 0.485584 0 0.480531 0.876977 0 0.936266 0.351292 0 0.351124 0.936329 0 0.715079 0.699043 0 0.674683 0.738107 0 0.1607 0.987003 0 0.987622 0.156852 0 0.0847691 0.996401 0 0.996446 0.0842319 0 0.119665 0.992814 0 0.993047 0.11772 0 0.518384 0.855148 0 0.851129 0.524956 0 0.782291 0.622913 0 0.991059 0.133426 0 0.386944 0.922103 0 0.999933 0.0115725 0 0.177341 0.984149 0 0.984188 0.177124 0 
VECTORS VY float
6.12323e-17 1 0 6.12323e-17 1 0 6.12323e-17 1 0 6.12323e-17 1 0 6.12323e-17 1 0 6.12323e-17 1 0 6.12323e-17 1 0 6.12323e-17 1 0 6.12323e-17 1 0 -0.189329 0.981914 0 -0.981914 0.189329 0 -1 1.12921e-13 0 6.12323e-17 1 0 6.12323e-17 1 0 6.12323e-17 1 0 6.12323e-17 1 0 6.12323e-17 1 0 6.12323e-17 1 0 -0.997066 0.0765422 0 -0.97715 0.212551 0 -0.945571 0.325417 0 -0.916419 0.40022 0 -0.892604 0.450841 0 -0.876048 0.482224 0 -0.866246 0.499618 0 -0.860718 0.509082 0 -0.858195 0.513323 0 -0.858195 0.513323 0 -0.860718 0.509082 0 -0.866246 0.499618 0 -0.876048 0.482224 0 -0.892604 0.450841 0 -0.916419 0.40022 0 -0.945571 0.325417 0 -0.97715 0.212551 0 -0.997066 0.0765422 0 -0.0765422 0.997066 0 -0.212551 0.97715 0 -0.325417 0.945571 0 -0.40022 0.916419 0 -0.450841 0.892604 0 -0.482224 0.876048 0 -0.499618 0.866246 0 -0.509082 0.860718 0 -0.513323 0.858195 0 -0.513323 0.858195 0 -0.509082 0.860718 0 -0.499618 0.866246 0 -0.482224 0.876048 0 -0.450841 0.892604 0 -0.40022 0.916419 0 -0.325417 0.945571 0 -0.212551 0.97715 0 -0.0765422 0.997066 0 6.12323e-17 1 0 6.12323e-17 1 0 6.12323e-17 1 0 -0.126564 0.991958 0 -0.271546 0.962425 0 -0.467157 0.884175 0 -0.77091 0.636944 0 -0.636944 0.77091 0 -0.884175 0.467157 0 -0.962425 0.271546 0 -0.991958 0.126564 0 -0.181842 0.983328 0 -0.444456 0.895801 0 -0.564179 0.825653 0 -0.444456 0.895801 0 -0.181842 0.983328 0 -0.983328 0.181842 0 -0.895801 0.444456 0 -0.825653 0.564179 0 -0.895801 0.444456 0 -0.983328 0.181842 0 6.12323e-17 1 0 6.12323e-17 1 0 6.12323e-17 1 0 6.12323e-17 1 0 6.12323e-17 1 0 6.12323e-17 1 0 6.12323e-17 1 0 6.12323e-17 1 0 6.12323e-17 1 0 6.12323e-17 1 0 6.12323e-17 1 0 6.12323e-17 1 0 -0.885763 0.464139 0 -0.896347 0.443353 0 -0.520333 0.853963 0 -0.0455635 0.998961 0 -0.998917 0.0465317 0 -0.18012 0.983645 0 -0.369035 0.929416 0 -0.930215 0.367016 0 -0.998182 0.0602685 0 -0.598075 0.80144 0 -0.83082 0.556541 0 -0.999999 0.00137077 0 -0.888574 0.458734 0 -0.462879 0.886421 0 -0.518618 0.855006 0 -0.860803 0.508938 0 -0.961899 0.273406 0 -0.273124 0.961979 0 -0.993828 0.110936 0 -0.110799 0.993843 0 -0.988455 0.151516 0 -0.412053 0.91116 0 -0.91016 0.414256 0 -0.883822 0.467823 0 -0.704689 0.709517 0 -0.540066 0.841623 0 -0.859291 0.511488 0 -0.300624 0.953743 0 -0.953709 0.30073 0 -0.967025 0.254681 0 -0.253693 0.967285 0 -0.989105 0.147209 0 -0.244152 0.969737 0 -0.282474 0.959275 0 -0.0871585 0.996194 0 -1 0.000591564 0 -0.000370637 1 0 -0.923468 0.383675 0 -0.880442 0.474154 0 -0.875442 0.483322 0 -0.491263 0.871011 0 -0.942523 0.334141 0 -0.334046 0.942557 0 -0.273889 0.961761 0 -0.961749 0.273934 0 -0.875566 0.483099 0 -0.485055 0.874484 0 -0.536838 0.843685 0 -0.851528 0.524309 0 -0.453208 0.891405 0 -0.0289868 0.99958 0 -0.999327 0.0366911 0 -0.395872 0.918305 0 -0.920697 0.390277 0 -0.593824 0.804595 0 -0.821654 0.569987 0 -0.998506 0.0546373 0 -0.422392 0.906413 0 -0.9069 0.421347 0 -0.365147 0.93095 0 -0.930423 0.366487 0 -0.9238 0.382875 0 -0.382786 0.923837 0 -0.446914 0.894577 0 -0.894788 0.446492 0 -0.819996 0.572369 0 -0.712171 0.702006 0 -0.997103 0.076064 0 -0.0720916 0.997398 0 -0.962739 0.270433 0 -0.476179 0.879349 0 -0.978355 0.206935 0 -0.204076 0.978955 0 -0.536719 0.843761 0 -0.853776 0.520641 0 -0.999585 0.0288172 0 -0.0286989 0.999588 0 -0.987344 0.158596 0 -0.890583 0.454821 0 -0.992507 0.122187 0 -0.996985 0.0775972 0 -0.0775363 0.99699 0 -0.161745 0.986833 0 -0.991183 0.132502 0 -0.886976 0.461815 0 -0.979369 0.202079 0 -0.201201 0.97955 0 -0.460417 0.887703 0 -0.998531 0.0541776 0 -0.0540013 0.998541 0 -0.415171 0.909744 0 -0.873846 0.486204 0 -0.486223 0.873835 0 -0.886602 0.462534 0 -0.467815 0.883827 0 -0.86455 0.502546 0 -0.505399 0.862886 0 -0.880094 0.474799 0 -0.476838 0.878991 0 -0.948323 0.317308 0 -0.0758284 0.997121 0 -0.997098 0.0761227 0 -0.837417 0.546565 0 -0.637464 0.77048 0 -0.512335 0.858786 0 -0.864946 0.501865 0 -0.0801566 0.996782 0 -0.227366 0.973809 0 -0.973801 0.227401 0 -0.996867 0.0790914 0 -0.212148 0.977237 0 -0.980179 0.198115 0 -0.927171 0.37464 0 -0.110653 0.993859 0 -0.999754 0.0221781 0 -0.51678 0.856118 0 -0.873482 0.486857 0 -0.899187 0.437565 0 -0.957313 0.289054 0 -0.613585 0.789629 0 -0.418851 0.908055 0 -0.907504 0.420043 0 -0.346 0.938235 0 -0.990748 0.135713 0 -0.867118 0.498103 0 -0.21263 0.977133 0 -0.977046 0.213027 0 -0.269024 0.963133 0 -0.438962 0.898506 0 -0.859686 0.510823 0 -0.520327 0.853967 0 -0.0536571 0.998559 0 -0.298286 0.954477 0 -0.348837 0.937183 0 -0.937199 0.348796 0 -0.951172 0.308662 0 -0.308455 0.951239 0 -0.979272 0.20255 0 -0.0169701 0.999856 0 -0.999574 0.0291804 0 -0.0291549 0.999575 0 -0.893599 0.448866 0 -0.999458 0.0329149 0 -0.0328626 0.99946 0 -0.999997 0.00243019 0 -0.00237876 0.999997 0 -0.997628 0.0688393 0 -0.319294 0.947656 0 -0.947664 0.31927 0 -0.997072 0.0764651 0 -0.485584 0.87419 0 -0.876977 0.480531 0 -0.351292 0.936266 0 -0.936329 0.351124 0 -0.699043 0.715079 0 -0.738107 0.674683 0 -0.987003 0.1607 0 -0.156852 0.987622 0 -0.996401 0.0847691 0 -0.0842319 0.996446 0 -0.992814 0.119665 0 -0.11772 0.993047 0 -0.855148 0.518384 0 -0.524956 0.851129 0 -0.622913 0.782291 0 -0.133426 0.991059 0 -0.922103 0.386944 0 -0.0115725 0.999933 0 -0.984149 0.177341 0 -0.177124 0.984188 0 
VECTORS VXM float