# vtk DataFile Version 3.0
Generated by GMDS VTK Writer

ASCII
DATASET UNSTRUCTURED_GRID
POINTS 162 float
0 0 0
10 0 0
10 10 0
0 10 0
3 10 0
3.5 10 0
6.5 10 0
6.5 0 0
3.5 0 0
0 3.5 0
0 6.5 0
10 6.5 0
10 3.5 0
0.778823 6.58775 0
1.51859 6.84661 0
2.18221 7.26359 0
2.73641 7.81779 0
3.15339 8.48141 0
3.41225 9.22118 0
6.58775 9.22118 0
6.84661 8.48141 0
7.26359 7.81779 0
7.81779 7.26359 0
8.48141 6.84661 0
9.22118 6.58775 0
9.22118 3.41225 0
8.48141 3.15339 0
7.81779 2.73641 0
7.26359 2.18221 0
6.84661 1.51859 0
6.58775 0.778823 0
0.778823 3.41225 0
1.51859 3.15339 0
2.18221 2.73641 0
2.73641 2.18221 0
3.15339 1.51859 0
3.41225 0.778823 0
4.25 10 0
5 10 0
5.75 10 0
10 5.75 0
10 5 0
10 4.25 0
5.75 0 0
5 0 0
4.25 0 0
0 4.25 0
0 5 0
0 5.75 0
5 5 0
2.76593 5.00642 0
4.98511 7.2449 0
7.2449 5.01489 0
5.01489 2.7551 0
3.50154 6.46592 0
6.46592 6.49846 0
3.58136 3.58136 0
6.49846 3.53408 0
1.32222 5.20537 0
8.67778 4.79463 0
5.20537 8.67778 0
4.79463 1.32222 0
2.43691 6.12168 0
2.46041 3.86593 0
7.42252 6.13194 0
3.86806 7.42252 0
6.12168 7.56309 0
7.56309 3.87832 0
6.13194 2.57748 0
3.87832 2.43691 0
3.88478 5.30342 0
5.21793 6.10349 0
6.10349 4.78207 0
4.69658 3.88478 0
8.65698 5.66001 0
4.33999 8.65698 0
1.34302 4.33999 0
5.66001 1.34302 0
3.44258 4.43197 0
4.54333 6.17075 0
6.17075 5.45667 0
5.42346 3.93474 0
9.21708 5.25735 0
4.74265 9.21708 0
5.25735 0.782916 0
0.782916 4.74265 0
2.90986 7.02449 0
7.02449 7.09014 0
2.99711 2.97848 0
7.09014 2.97551 0
3.15103 5.7233 0
5.7233 6.84897 0
6.84897 4.2767 0
4.30655 3.1397 0
4.22837 6.80739 0
6.80739 5.77163 0
5.75559 3.18708 0
4.23581 4.68768 0
3.94046 1.64257 0
1.64257 6.05954 0
8.35743 3.94046 0
6.05954 8.35743 0
1.97078 4.70905 0
4.7055 8.03103 0
8.03103 5.2945 0
5.2945 1.96897 0
9.25451 4.14876 0
5.85124 9.25451 0
0.745493 5.85124 0
4.14876 0.745493 0
2.21491 5.47089 0
4.53822 2.21091 0
7.7872 4.53325 0
5.46675 7.7872 0
0.65479 4.07783 0
4.07783 9.34521 0
5.92217 0.65479 0
9.34521 5.92217 0
2.98972 3.87846 0
4.93961 6.6351 0
6.6351 5.06039 0
5.12814 3.40331 0
1.89533 3.8729 0
8.05568 6.06743 0
3.93257 8.05568 0
6.06743 1.94432 0
4.06716 3.99703 0
4.56844 5.48984 0
5.48618 4.58575 0
5.46895 5.40236 0
2.16882 6.63753 0
6.63753 7.83118 0
7.83118 3.36247 0
3.36824 2.19954 0
9.47643 4.72678 0
5.27322 9.47643 0
4.72678 0.523568 0
0.523568 5.27322 0
2.93732 6.40327 0
6.40327 7.06268 0
7.06268 3.59673 0
3.60217 2.94605 0
3.59368 7.02619 0
6.40632 2.97381 0
7.02619 6.40632 0
3.36566 7.63801 0
7.63801 6.63434 0
2.42575 3.31108 0
6.63434 2.36199 0
4.40641 7.50915 0
7.50915 5.59359 0
5.57382 2.49139 0
2.52815 4.40687 0
3.35516 5.04882 0
3.93855 5.9636 0
5.93325 6.08728 0
6.09022 4.0799 0
4.96841 4.41859 0
8.75085 6.23635 0
3.76365 8.75085 0
1.23811 3.77127 0
6.23635 1.24915 0

CELLS 268 1072
3 74 104 123 
3 75 103 124 
3 77 105 125 
3 76 102 122 
3 104 150 123 
3 103 149 124 
3 102 152 122 
3 105 151 125 
3 50 110 90 
3 51 113 91 
3 52 112 92 
3 53 111 93 
3 59 74 82 
3 60 75 83 
3 61 77 84 
3 58 76 85 
3 62 90 110 
3 66 91 113 
3 67 92 112 
3 69 93 111 
3 12 106 42 
3 8 109 45 
3 6 107 39 
3 10 108 48 
3 59 104 74 
3 60 103 75 
3 58 102 76 
3 61 105 77 
3 12 25 106 
3 6 19 107 
3 10 13 108 
3 8 36 109 
3 63 122 152 
3 68 125 151 
3 65 124 149 
3 64 123 150 
3 78 153 97 
3 36 98 109 
3 25 100 106 
3 19 101 107 
3 13 99 108 
3 79 154 94 
3 80 155 95 
3 81 156 96 
3 154 54 94 
3 155 55 95 
3 156 57 96 
3 153 70 97 
3 71 127 79 
3 71 129 127 
3 72 128 129 
3 72 129 80 
3 88 147 118 
3 25 26 100 
3 19 20 101 
3 35 98 36 
3 13 14 99 
3 50 78 152 
3 56 88 118 
3 78 118 152 
3 46 47 85 
3 37 38 83 
3 40 41 82 
3 43 44 84 
3 86 138 130 
3 87 139 131 
3 89 140 132 
3 88 141 133 
3 61 109 98 
3 59 106 100 
3 58 108 99 
3 60 107 101 
3 15 86 130 
3 21 87 131 
3 34 88 133 
3 27 89 132 
3 63 118 147 
3 32 122 147 
3 17 124 145 
3 23 123 146 
3 29 125 148 
3 46 85 114 
3 37 83 115 
3 43 84 116 
3 40 82 117 
3 15 16 86 
3 21 22 87 
3 33 88 34 
3 27 28 89 
3 16 17 145 
3 22 23 146 
3 32 147 33 
3 28 29 148 
3 71 119 91 
3 72 120 92 
3 73 121 93 
3 9 46 114 
3 5 37 115 
3 7 43 116 
3 11 40 117 
3 9 114 31 
3 5 115 18 
3 7 116 30 
3 11 117 24 
3 51 91 119 
3 52 92 120 
3 53 93 121 
3 73 93 126 
3 58 85 137 
3 59 82 134 
3 60 83 135 
3 61 84 136 
3 73 157 81 
3 50 153 78 
3 50 102 110 
3 51 103 113 
3 52 104 112 
3 53 105 111 
3 56 126 93 
3 56 78 126 
3 71 79 119 
3 72 80 120 
3 73 81 121 
3 74 117 82 
3 75 115 83 
3 77 116 84 
3 76 114 85 
3 70 127 97 
3 58 137 108 
3 59 134 106 
3 60 135 107 
3 61 136 109 
3 56 118 78 
3 49 127 129 
3 49 129 128 
3 62 130 138 
3 66 131 139 
3 67 132 140 
3 69 133 141 
3 49 97 127 
3 61 98 111 
3 58 99 110 
3 59 100 112 
3 60 101 113 
3 61 111 105 
3 58 110 102 
3 59 112 104 
3 60 113 103 
3 62 110 99 
3 69 111 98 
3 67 112 100 
3 66 113 101 
3 70 153 90 
3 70 90 154 
3 71 91 155 
3 72 92 156 
3 79 94 119 
3 80 95 120 
3 81 96 121 
3 41 134 82 
3 38 135 83 
3 44 136 84 
3 47 137 85 
3 78 97 126 
3 69 98 133 
3 35 133 98 
3 14 130 99 
3 62 99 130 
3 20 131 101 
3 26 132 100 
3 66 101 131 
3 67 100 132 
3 54 138 86 
3 55 139 87 
3 54 86 142 
3 55 87 144 
3 57 140 89 
3 56 141 88 
3 57 89 143 
3 42 106 134 
3 39 107 135 
3 45 109 136 
3 48 108 137 
3 33 147 88 
3 16 145 86 
3 22 146 87 
3 28 148 89 
3 54 142 94 
3 55 144 95 
3 57 143 96 
3 56 93 141 
3 69 141 93 
3 62 138 90 
3 54 90 138 
3 67 140 92 
3 66 139 91 
3 57 92 140 
3 55 91 139 
3 65 94 142 
3 64 95 144 
3 68 96 143 
3 50 90 153 
3 54 154 90 
3 55 155 91 
3 57 156 92 
3 51 119 94 
3 52 120 95 
3 53 121 96 
3 65 149 94 
3 51 94 149 
3 64 150 95 
3 52 95 150 
3 68 151 96 
3 53 96 151 
3 70 154 127 
3 79 127 154 
3 71 155 129 
3 80 129 155 
3 72 156 128 
3 81 128 156 
3 41 42 134 
3 38 39 135 
3 44 45 136 
3 47 48 137 
3 74 158 117 
3 75 159 115 
3 77 161 116 
3 76 160 114 
3 73 126 97 
3 81 157 128 
3 49 157 97 
3 73 97 157 
3 65 145 124 
3 64 146 123 
3 63 147 122 
3 68 148 125 
3 34 133 35 
3 14 15 130 
3 20 21 131 
3 26 27 132 
3 50 152 102 
3 51 149 103 
3 52 150 104 
3 53 151 105 
3 23 24 158 
3 17 18 159 
3 31 160 32 
3 29 30 161 
3 63 152 118 
3 24 117 158 
3 18 115 159 
3 30 116 161 
3 31 114 160 
3 32 160 122 
3 23 158 123 
3 17 159 124 
3 29 161 125 
3 86 145 142 
3 65 142 145 
3 89 148 143 
3 87 146 144 
3 68 143 148 
3 64 144 146 
3 49 128 157 
3 76 122 160 
3 74 123 158 
3 75 124 159 
3 77 125 161 

CELL_TYPES 268
5 
5 
5 
5 
5 
5 
5 
5 
5 
5 
5 
5 
5 
5 
5 
5 
5 
5 
5 
5 
5 
5 
5 
5 
5 
5 
5 
5 
5 
5 
5 
5 
5 
5 
5 
5 
5 
5 
5 
5 
5 
5 
5 
5 
5 
5 
5 
5 
5 
5 
5 
5 
5 
5 
5 
5 
5 
5 
5 
5 
5 
5 
5 
5 
5 
5 
5 
5 
5 
5 
5 
5 
5 
5 
5 
5 
5 
5 
5 
5 
5 
5 
5 
5 
5 
5 
5 
5 
5 
5 
5 
5 
5 
5 
5 
5 
5 
5 
5 
5 
5 
5 
5 
5 
5 
5 
5 
5 
5 
5 
5 
5 
5 
5 
5 
5 
5 
5 
5 
5 
5 
5 
5 
5 
5 
5 
5 
5 
5 
5 
5 
5 
5 
5 
5 
5 
5 
5 
5 
5 
5 
5 
5 
5 
5 
5 
5 
5 
5 
5 
5 
5 
5 
5 
5 
5 
5 
5 
5 
5 
5 
5 
5 
5 
5 
5 
5 
5 
5 
5 
5 
5 
5 
5 
5 
5 
5 
5 
5 
5 
5 
5 
5 
5 
5 
5 
5 
5 
5 
5 
5 
5 
5 
5 
5 
5 
5 
5 
5 
5 
5 
5 
5 
5 
5 
5 
5 
5 
5 
5 
5 
5 
5 
5 
5 
5 
5 
5 
5 
5 
5 
5 
5 
5 
5 
5 
5 
5 
5 
5 
5 
5 
5 
5 
5 
5 
5 
5 
5 
5 
5 
5 
5 
5 
5 
5 
5 
5 
5 
5 
5 
5 
5 
5 
5 
5 
5 
5 
5 
5 
5 
5 
5 
5 
5 
5 
5 
5 
POINT_DATA 162
SCALARS GMDS_ID int 1
LOOKUP_TABLE default
0 1 2 3 4 5 6 7 8 9 10 11 12 13 14 15 16 17 18 19 20 21 22 23 24 25 26 27 28 29 30 31 32 33 34 35 36 37 38 39 40 41 42 43 44 45 46 47 48 49 50 51 52 53 54 55 56 57 58 59 60 61 62 63 64 65 66 67 68 69 70 71 72 73 74 75 76 77 78 79 80 81 82 83 84 85 86 87 88 89 90 91 92 93 94 95 96 97 98 99 100 101 102 103 104 105 106 107 108 109 110 111 112 113 114 115 116 117 118 119 120 121 122 123 124 125 126 127 128 129 130 131 132 133 134 135 136 137 138 139 140 141 142 143 144 145 146 147 148 149 150 151 152 153 154 155 156 157 158 159 160 161 
SCALARS angle float 1
LOOKUP_TABLE default
0 0 0 0 0 0 0 0 0 0 0 0 0 0.897598 1.7952 2.69279 3.59039 4.48799 5.38559 0.897598 1.7952 2.69279 3.59039 4.48799 5.38559 0.897598 1.7952 2.69279 3.59039 4.48799 5.38559 5.38559 4.48799 3.59039 2.69279 1.7952 0.897598 0 0 0 0 0 0 0 0 0 0 0 0 3.16692 3.1741 3.19978 3.19935 3.17441 3.1673 3.17184 3.13504 3.16814 0.0573919 6.27148 6.27102 0.0490376 2.57856 3.64404 3.56302 3.56282 2.58836 2.58686 3.55959 2.54806 3.14926 3.16443 3.16287 3.14045 4.66942 4.66989 4.70191 4.67681 3.23079 3.19496 3.1969 3.17953 5.86494 5.86498 5.87588 5.90451 3.25722 3.25896 3.20259 3.25726 3.00597 3.01741 3.01497 2.97939 3.31685 3.31731 3.30828 3.16477 1.92843 1.95096 1.96061 1.96108 3.74815 3.76469 3.76414 3.75127 0.117106 0.117019 0.123974 0.12891 2.70741 2.68807 2.73941 2.74048 5.26031 5.23661 5.24002 5.23651 3.39255 3.18337 3.18314 3.1799 4.10144 4.02676 4.02713 4.02613 3.14497 3.16872 3.16592 3.17163 2.39027 2.3929 2.39237 2.39866 6.25631 6.25629 6.25973 6.26224 2.93419 2.94046 2.93789 2.87511 3.38357 3.3811 3.38487 3.58361 3.58377 3.56868 3.58254 3.5352 3.53508 3.51895 3.5049 3.15313 3.15921 3.15885 3.1532 3.16112 4.51432 4.51448 4.52478 4.51547 
VECTORS cross_X float
1 0 0 1 0 0 1 0 0 1 0 0 1 0 0 1 0 0 1 0 0 1 0 0 1 0 0 1 0 0 1 0 0 1 0 0 1 0 0 0.974928 0.222521 0 0.900969 0.433884 0 0.781831 0.62349 0 0.62349 0.781831 0 0.433884 0.900969 0 0.222521 0.974928 0 0.974928 0.222521 0 0.900969 0.433884 0 0.781831 0.62349 0 0.62349 0.781831 0 0.433884 0.900969 0 0.222521 0.974928 0 0.974928 0.222521 0 0.900969 0.433884 0 0.781831 0.62349 0 0.62349 0.781831 0 0.433884 0.900969 0 0.222521 0.974928 0 0.222521 0.974928 0 0.433884 0.900969 0 0.62349 0.781831 0 0.781831 0.62349 0 0.900969 0.433884 0 0.974928 0.222521 0 1 0 0 1 0 0 1 0 0 1 0 0 1 0 0 1 0 0 1 0 0 1 0 0 1 0 0 1 0 0 1 0 0 1 0 0 0.702614 0.711571 0 0.701338 0.712829 0 0.696746 0.717318 0 0.696823 0.717243 0 0.701282 0.712884 0 0.702547 0.711637 0 0.70174 0.712433 0 0.708265 0.705947 0 0.702398 0.711784 0 0.999897 0.0143475 0 0.00292524 0.999996 0 0.00304069 0.999995 0 0.999925 0.0122591 0 0.799316 0.600912 0 0.612948 0.790123 0 0.628826 0.777546 0 0.628864 0.777515 0 0.797842 0.602867 0 0.798067 0.602569 0 0.629492 0.777007 0 0.803875 0.594799 0 0.70575 0.708461 0 0.703058 0.711133 0 0.703336 0.710857 0 0.707309 0.706904 0 0.392586 0.919715 0 0.392478 0.919761 0 0.385103 0.922874 0 0.390887 0.920439 0 0.691164 0.722698 0 0.69761 0.716478 0 0.697263 0.716816 0 0.700368 0.713781 0 0.10437 0.994539 0 0.104362 0.994539 0 0.10165 0.99482 0 0.0945287 0.995522 0 0.686375 0.727248 0 0.686058 0.727547 0 0.696242 0.717807 0 0.686366 0.727256 0 0.73067 0.682731 0 0.728716 0.684816 0 0.729133 0.684372 0 0.735192 0.677859 0 0.675457 0.737399 0 0.675373 0.737477 0 0.677035 0.735951 0 0.702998 0.711191 0 0.88602 0.463647 0 0.883394 0.468631 0 0.882261 0.470761 0 0.882206 0.470863 0 0.592178 0.805807 0 0.588841 0.808249 0 0.588951 0.808169 0 0.591549 0.806269 0 0.999571 0.0292723 0 0.999572 0.0292506 0 0.99952 0.0309885 0 0.999481 0.0322218 0 0.779548 0.626342 0 0.782568 0.622565 0 0.774512 0.63256 0 0.774344 0.632765 0 0.252942 0.967481 0 0.258669 0.965966 0 0.257845 0.966186 0 0.258693 0.965959 0 0.661382 0.75005 0 0.699683 0.714453 0 0.699723 0.714414 0 0.700302 0.713847 0 0.51879 0.854902 0 0.534662 0.845066 0 0.534583 0.845116 0 0.534794 0.844983 0 0.706509 0.707704 0 0.702295 0.711886 0 0.702793 0.711394 0 0.701778 0.712396 0 0.826707 0.562633 0 0.826336 0.563177 0 0.826411 0.563068 0 0.825525 0.564366 0 0.00671794 0.999977 0 0.00672282 0.999977 0 0.00586409 0.999983 0 0.00523548 0.999986 0 0.742803 0.66951 0 0.741754 0.670672 0 0.742185 0.670196 0 0.752611 0.658466 0 0.663064 0.748563 0 0.663526 0.748153 0 0.66282 0.748778 0 0.624814 0.780774 0 0.624783 0.780798 0 0.627724 0.778436 0 0.625024 0.780606 0 0.634217 0.773155 0 0.634241 0.773135 0 0.637353 0.770572 0 0.640056 0.768329 0 0.705065 0.709143 0 0.703986 0.710214 0 0.70405 0.71015 0 0.705052 0.709156 0 0.703646 0.710551 0 0.427943 0.903806 0 0.427909 0.903822 0 0.425579 0.904921 0 0.427684 0.903928 0 
VECTORS VY float
6.12323e-17 1 0 6.12323e-17 1 0 6.12323e-17 1 0 6.12323e-17 1 0 6.12323e-17 1 0 6.12323e-17 1 0 6.12323e-17 1 0 6.12323e-17 1 0 6.12323e-17 1 0 6.12323e-17 1 0 6.12323e-17 1 0 6.12323e-17 1 0 6.12323e-17 1 0 -0.222521 0.974928 0 -0.433884 0.900969 0 -0.62349 0.781831 0 -0.781831 0.62349 0 -0.900969 0.433884 0 -0.974928 0.222521 0 -0.222521 0.974928 0 -0.433884 0.900969 0 -0.62349 0.781831 0 -0.781831 0.62349 0 -0.900969 0.433884 0 -0.974928 0.222521 0 -0.222521 0.974928 0 -0.433884 0.900969 0 -0.62349 0.781831 0 -0.781831 0.62349 0 -0.900969 0.433884 0 -0.974928 0.222521 0 -0.974928 0.222521 0 -0.900969 0.433884 0 -0.781831 0.62349 0 -0.62349 0.781831 0 -0.433884 0.900969 0 -0.222521 0.974928 0 6.12323e-17 1 0 6.12323e-17 1 0 6.12323e-17 1 0 6.12323e-17 1 0 6.12323e-17 1 0 6.12323e-17 1 0 6.12323e-17 1 0 6.12323e-17 1 0 6.12323e-17 1 0 6.12323e-17 1 0 6.12323e-17 1 0 6.12323e-17 1 0 -0.711571 0.702614 0 -0.712829 0.701338 0 -0.717318 0.696746 0 -0.717243 0.696823 0 -0.712884 0.701282 0 -0.711637 0.702547 0 -0.712433 0.70174 0 -0.705947 0.708265 0 -0.711784 0.702398 0 -0.0143475 0.999897 0 -0.999996 0.00292524 0 -0.999995 0.00304069 0 -0.0122591 0.999925 0 -0.600912 0.799316 0 -0.790123 0.612948 0 -0.777546 0.628826 0 -0.777515 0.628864 0 -0.602867 0.797842 0 -0.602569 0.798067 0 -0.777007 0.629492 0 -0.594799 0.803875 0 -0.708461 0.70575 0 -0.711133 0.703058 0 -0.710857 0.703336 0 -0.706904 0.707309 0 -0.919715 0.392586 0 -0.919761 0.392478 0 -0.922874 0.385103 0 -0.920439 0.390887 0 -0.722698 0.691164 0 -0.716478 0.69761 0 -0.716816 0.697263 0 -0.713781 0.700368 0 -0.994539 0.10437 0 -0.994539 0.104362 0 -0.99482 0.10165 0 -0.995522 0.0945287 0 -0.727248 0.686375 0 -0.727547 0.686058 0 -0.717807 0.696242 0 -0.727256 0.686366 0 -0.682731 0.73067 0 -0.684816 0.728716 0 -0.684372 0.729133 0 -0.677859 0.735192 0 -0.737399 0.675457 0 -0.737477 0.675373 0 -0.735951 0.677035 0 -0.711191 0.702998 0 -0.463647 0.88602 0 -0.468631 0.883394 0 -0.470761 0.882261 0 -0.470863 0.882206 0 -0.805807 0.592178 0 -0.808249 0.588841 0 -0.808169 0.588951 0 -0.806269 0.591549 0 -0.0292723 0.999571 0 -0.0292506 0.999572 0 -0.0309885 0.99952 0 -0.0322218 0.999481 0 -0.626342 0.779548 0 -0.622565 0.782568 0 -0.63256 0.774512 0 -0.632765 0.774344 0 -0.967481 0.252942 0 -0.965966 0.258669 0 -0.966186 0.257845 0 -0.965959 0.258693 0 -0.75005 0.661382 0 -0.714453 0.699683 0 -0.714414 0.699723 0 -0.713847 0.700302 0 -0.854902 0.51879 0 -0.845066 0.534662 0 -0.845116 0.534583 0 -0.844983 0.534794 0 -0.707704 0.706509 0 -0.711886 0.702295 0 -0.711394 0.702793 0 -0.712396 0.701778 0 -0.562633 0.826707 0 -0.563177 0.826336 0 -0.563068 0.826411 0 -0.564366 0.825525 0 -0.999977 0.00671794 0 -0.999977 0.00672282 0 -0.999983 0.00586409 0 -0.999986 0.00523548 0 -0.66951 0.742803 0 -0.670672 0.741754 0 -0.670196 0.742185 0 -0.658466 0.752611 0 -0.748563 0.663064 0 -0.748153 0.663526 0 -0.748778 0.66282 0 -0.780774 0.624814 0 -0.780798 0.624783 0 -0.778436 0.627724 0 -0.780606 0.625024 0 -0.773155 0.634217 0 -0.773135 0.634241 0 -0.770572 0.637353 0 -0.768329 0.640056 0 -0.709143 0.705065 0 -0.710214 0.703986 0 -0.71015 0.70405 0 -0.709156 0.705052 0 -0.710551 0.703646 0 -0.903806 0.427943 0 -0.903822 0.427909 0 -0.904921 0.425579 0 -0.903928 0.427684 0 
VECTORS VXM float
-1 1.22465e-16 0 -1 1.22465e-16 0 -1 1.22465e-16 0 -1 1.22465e-16 0 -1 1.22465e-16 0 -1 1.22465e-16 0 -1 1.22465e-16 0 -1 1.22465e-16 0 -1 1.22465e-16 0 -1 1.22465e-16 0 -1 1.22465e-16 0 -1 1.22465e-16 0 -1 1.22465e-16 0 -0.974928 -0.222521 0 -0.900969 -0.433884 0 -0.781831 -0.62349 0 -0.62349 -0.781831 0 -0.433884 -0.900969 0 -0.222521 -0.974928 0 -0.974928 -0.222521 0 -0.900969 -0.433884 0 -0.781831 -0.62349 0 -0.62349 -0.781831 0 -0.433884 -0.900969 0 -0.222521 -0.974928 0 -0.974928 -0.222521 0 -0.900969 -0.433884 0 -0.781831 -0.62349 0 -0.62349 -0.781831 0 -0.433884 -0.900969 0 -0.222521 -0.974928 0 -0.222521 -0.974928 0 -0.433884 -0.900969 0 -0.62349 -0.781831 0 -0.781831 -0.62349 0 -0.900969 -0.433884 0 -0.974928 -0.222521 0 -1 1.22465e-16 0 -1 1.22465e-16 0 -1 1.22465e-16 0 -1 1.22465e-16 0 -1 1.22465e-16 0 -1 1.22465e-16 0 -1 1.22465e-16 0 -1 1.22465e-16 0 -1 1.22465e-16 0 -1 1.22465e-16 0 -1 1.22465e-16 0 -1 1.22465e-16 0 -0.702614 -0.711571 0 -0.701338 -0.712829 0 -0.696746 -0.717318 0 -0.696823 -0.717243 0 -0.701282 -0.712884 0 -0.702547 -0.711637 0 -0.70174 -0.712433 0 -0.708265 -0.705947 0 -0.702398 -0.711784 0 -0.999897 -0.0143475 0 -0.00292524 -0.999996 0 -0.00304069 -0.999995 0 -0.999925 -0.0122591 0 -0.799316 -0.600912 0 -0.612948 -0.790123 0 -0.628826 -0.777546 0 -0.628864 -0.777515 0 -0.797842 -0.602867 0 -0.798067 -0.602569 0 -0.629492 -0.777007 0 -0.803875 -0.594799 0 -0.70575 -0.708461 0 -0.703058 -0.711133 0 -0.703336 -0.710857 0 -0.707309 -0.706904 0 -0.392586 -0.919715 0 -0.392478 -0.919761 0 -0.385103 -0.922874 0 -0.390887 -0.920439 0 -0.691164 -0.722698 0 -0.69761 -0.716478 0 -0.697263 -0.716816 0 -0.700368 -0.713781 0 -0.10437 -0.994539 0 -0.104362 -0.994539 0 -0.10165 -0.99482 0 -0.0945287 -0.995522 0 -0.686375 -0.727248 0 -0.686058 -0.727547 0 -0.696242 -0.717807 0 -0.686366 -0.727256 0 -0.73067 -0.682731 0 -0.728716 -0.684816 0 -0.729133 -0.684372 0 -0.735192 -0.677859 0 -0.675457 -0.737399 0 -0.675373 -0.737477 0 -0.677035 -0.735951 0 -0.702998 -0.711191 0 -0.88602 -0.463647 0 -0.883394 -0.468631 0 -0.882261 -0.470761 0 -0.882206 -0.470863 0 -0.592178 -0.805807 0 -0.588841 -0.808249 0 -0.588951 -0.808169 0 -0.591549 -0.806269 0 -0.999571 -0.0292723 0 -0.999572 -0.0292506 0 -0.99952 -0.0309885 0 -0.999481 -0.0322218 0 -0.779548 -0.626342 0 -0.782568 -0.622565 0 -0.774512 -0.63256 0 -0.774344 -0.632765 0 -0.252942 -0.967481 0 -0.258669 -0.965966 0 -0.257845 -0.966186 0 -0.258693 -0.965959 0 -0.661382 -0.75005 0 -0.699683 -0.714453 0 -0.699723 -0.714414 0 -0.700302 -0.713847 0 -0.51879 -0.854902 0 -0.534662 -0.845066 0 -0.534583 -0.845116 0 -0.534794 -0.844983 0 -0.706509 -0.707704 0 -0.702295 -0.711886 0 -0.702793 -0.711394 0 -0.701778 -0.712396 0 -0.826707 -0.562633 0 -0.826336 -0.563177 0 -0.826411 -0.563068 0 -0.825525 -0.564366 0 -0.00671794 -0.999977 0 -0.00672282 -0.999977 0 -0.00586409 -0.999983 0 -0.00523548 -0.999986 0 -0.742803 -0.66951 0 -0.741754 -0.670672 0 -0.742185 -0.670196 0 -0.752611 -0.658466 0 -0.663064 -0.748563 0 -0.663526 -0.748153 0 -0.66282 -0.748778 0 -0.624814 -0.780774 0 -0.624783 -0.780798 0 -0.627724 -0.778436 0 -0.625024 -0.780606 0 -0.634217 -0.773155 0 -0.634241 -0.773135 0 -0.637353 -0.770572 0 -0.640056 -0.768329 0 -0.705065 -0.709143 0 -0.703986 -0.710214 0 -0.70405 -0.71015 0 -0.705052 -0.709156 0 -0.703646 -0.710551 0 -0.427943 -0.903806 0 -0.427909 -0.903822 0 -0.425579 -0.904921 0 -0.427684 -0.903928 0 
VECTORS VYM float
-1.83697e-16 -1 0 -1.83697e-16 -1 0 -1.83697e-16 -1 0 -1.83697e-16 -1 0 -1.83697e-16 -1 0 -1.83697e-16 -1 0 -1.83697e-16 -1 0 -1.83697e-16 -1 0 -1.83697e-16 -1 0 -1.83697e-16 -1 0 -1.83697e-16 -1 0 -1.83697e-16 -1 0 -1.83697e-16 -1 0 0.222521 -0.974928 0 0.433884 -0.900969 0 0.62349 -0.781831 0 0.781831 -0.62349 0 0.900969 -0.433884 0 0.974928 -0.222521 0 0.222521 -0.974928 0 0.433884 -0.900969 0 0.62349 -0.781831 0 0.781831 -0.62349 0 0.900969 -0.433884 0 0.974928 -0.222521 0 0.222521 -0.974928 0 0.433884 -0.900969 0 0.62349 -0.781831 0 0.781831 -0.62349 0 0.900969 -0.433884 0 0.974928 -0.222521 0 0.974928 -0.222521 0 0.900969 -0.433884 0 0.781831 -0.62349 0 0.62349 -0.781831 0 0.433884 -0.900969 0 0.222521 -0.974928 0 -1.83697e-16 -1 0 -1.83697e-16 -1 0 -1.83697e-16 -1 0 -1.83697e-16 -1 0 -1.83697e-16 -1 0 -1.83697e-16 -1 0 -1.83697e-16 -1 0 -1.83697e-16 -1 0 -1.83697e-16 -1 0 -1.83697e-16 -1 0 -1.83697e-16 -1 0 -1.83697e-16 -1 0 0.711571 -0.702614 0 0.712829 -0.701338 0 0.717318 -0.696746 0 0.717243 -0.696823 0 0.712884 -0.701282 0 0.711637 -0.702547 0 0.712433 -0.70174 0 0.705947 -0.708265 0 0.711784 -0.702398 0 0.0143475 -0.999897 0 0.999996 -0.00292524 0 0.999995 -0.00304069 0 0.0122591 -0.999925 0 0.600912 -0.799316 0 0.790123 -0.612948 0 0.777546 -0.628826 0 0.777515 -0.628864 0 0.602867 -0.797842 0 0.602569 -0.798067 0 0.777007 -0.629492 0 0.594799 -0.803875 0 0.708461 -0.70575 0 0.711133 -0.703058 0 0.710857 -0.703336 0 0.706904 -0.707309 0 0.919715 -0.392586 0 0.919761 -0.392478 0 0.922874 -0.385103 0 0.920439 -0.390887 0 0.722698 -0.691164 0 0.716478 -0.69761 0 0.716816 -0.697263 0 0.713781 -0.700368 0 0.994539 -0.10437 0 0.994539 -0.104362 0 0.99482 -0.10165 0 0.995522 -0.0945287 0 0.727248 -0.686375 0 0.727547 -0.686058 0 0.717807 -0.696242 0 0.727256 -0.686366 0 0.682731 -0.73067 0 0.684816 -0.728716 0 0.684372 -0.729133 0 0.677859 -0.735192 0 0.737399 -0.675457 0 0.737477 -0.675373 0 0.735951 -0.677035 0 0.711191 -0.702998 0 0.463647 -0.88602 0 0.468631 -0.883394 0 0.470761 -0.882261 0 0.470863 -0.882206 0 0.805807 -0.592178 0 0.808249 -0.588841 0 0.808169 -0.588951 0 0.806269 -0.591549 0 0.0292723 -0.999571 0 0.0292506 -0.999572 0 0.0309885 -0.99952 0 0.0322218 -0.999481 0 0.626342 -0.779548 0 0.622565 -0.782568 0 0.63256 -0.774512 0 0.632765 -0.774344 0 0.967481 -0.252942 0 0.965966 -0.258669 0 0.966186 -0.257845 0 0.965959 -0.258693 0 0.75005 -0.661382 0 0.714453 -0.699683 0 0.714414 -0.699723 0 0.713847 -0.700302 0 0.854902 -0.51879 0 0.845066 -0.534662 0 0.845116 -0.534583 0 0.844983 -0.534794 0 0.707704 -0.706509 0 0.711886 -0.702295 0 0.711394 -0.702793 0 0.712396 -0.701778 0 0.562633 -0.826707 0 0.563177 -0.826336 0 0.563068 -0.826411 0 0.564366 -0.825525 0 0.999977 -0.00671794 0 0.999977 -0.00672282 0 0.999983 -0.00586409 0 0.999986 -0.00523548 0 0.66951 -0.742803 0 0.670672 -0.741754 0 0.670196 -0.742185 0 0.658466 -0.752611 0 0.748563 -0.663064 0 0.748153 -0.663526 0 0.748778 -0.66282 0 0.780774 -0.624814 0 0.780798 -0.624783 0 0.778436 -0.627724 0 0.780606 -0.625024 0 0.773155 -0.634217 0 0.773135 -0.634241 0 0.770572 -0.637353 0 0.768329 -0.640056 0 0.709143 -0.705065 0 0.710214 -0.703986 0 0.71015 -0.70405 0 0.709156 -0.705052 0 0.710551 -0.703646 0 0.903806 -0.427943 0 0.903822 -0.427909 0 0.904921 -0.425579 0 0.903928 -0.427684 0 


CELL_DATA 268
SCALARS GMDS_ID int 1
LOOKUP_TABLE default
0 1 2 3 4 5 6 7 8 9 10 11 12 13 14 15 16 17 18 19 20 21 22 23 24 25 26 27 28 29 30 31 32 33 34 35 36 37 38 39 40 41 42 43 44 45 46 47 48 49 50 51 52 53 54 55 56 57 58 59 60 61 62 63 64 65 66 67 68 69 70 71 72 73 74 75 76 77 78 79 80 81 82 83 84 85 86 87 88 89 90 91 92 93 94 95 96 97 98 99 100 101 102 103 104 105 106 107 108 109 110 111 112 113 114 115 116 117 118 119 120 121 122 123 124 125 126 127 128 129 130 131 132 133 134 135 136 137 138 139 140 141 142 143 144 145 146 147 148 149 150 151 152 153 154 155 156 157 158 159 160 161 162 163 164 165 166 167 168 169 170 171 172 173 174 175 176 177 178 179 180 181 182 183 184 185 186 187 188 189 190 191 192 193 194 195 196 197 198 199 200 201 202 203 204 205 206 207 208 209 210 211 212 213 214 215 216 217 218 219 220 221 222 223 224 225 226 227 228 229 230 231 232 233 234 235 236 237 238 239 240 241 242 243 244 245 246 247 248 249 250 251 252 253 254 255 256 257 258 259 260 261 262 263 264 265 266 267 

SCALARS BND_SURFACE_COLOR int 1
LOOKUP_TABLE default
1 1 1 1 1 1 1 1 1 1 1 1 1 1 1 1 1 1 1 1 1 1 1 1 1 1 1 1 1 1 1 1 1 1 1 1 1 1 1 1 1 1 1 1 1 1 1 1 1 1 1 1 1 1 1 1 1 1 1 1 1 1 1 1 1 1 1 1 1 1 1 1 1 1 1 1 1 1 1 1 1 1 1 1 1 1 1 1 1 1 1 1 1 1 1 1 1 1 1 1 1 1 1 1 1 1 1 1 1 1 1 1 1 1 1 1 1 1 1 1 1 1 1 1 1 1 1 1 1 1 1 1 1 1 1 1 1 1 1 1 1 1 1 1 1 1 1 1 1 1 1 1 1 1 1 1 1 1 1 1 1 1 1 1 1 1 1 1 1 1 1 1 1 1 1 1 1 1 1 1 1 1 1 1 1 1 1 1 1 1 1 1 1 1 1 1 1 1 1 1 1 1 1 1 1 1 1 1 1 1 1 1 1 1 1 1 1 1 1 1 1 1 1 1 1 1 1 1 1 1 1 1 1 1 1 1 1 1 1 1 1 1 1 1 1 1 1 1 1 1 1 1 1 1 1 1 1 1 1 1 1 1 1 1 1 1 1 1 

SCALARS angleDeviation float 1
LOOKUP_TABLE default
0.603518 0.603467 0.617025 0.635838 0.327784 0.327952 0.397695 0.338118 0.311124 0.306202 0.306624 0.324228 1.06804 1.06742 1.10361 1.09245 0.284939 0.286032 0.285402 0.287551 0.0780707 0.0859398 0.0780127 0.0826492 1.67156 1.67089 1.72829 1.72064 0.598399 0.598399 0.598399 0.598399 0.397695 0.338118 0.327952 0.327784 0.0517778 1.19968 1.229 1.22937 1.21799 0.105093 0.105639 0.103386 0.105093 0.105639 0.103386 0.0103382 0.0203517 0.00479559 0.00583961 0.022688 0.244058 0.708676 0.708986 0.687219 0.702243 0.220538 0.171675 0.182739 0.252453 0.278806 0.278828 0.271535 0.577966 0.577371 0.576594 0.535954 1.25293 1.31487 1.26238 1.31549 0.577966 0.577371 0.535954 0.576594 0.167662 0.612873 0.602917 0.602813 0.603635 0.68192 0.697718 0.695444 0.697785 0.598399 0.598399 0.598399 0.598399 0.602917 0.602813 0.612873 0.603635 0.110642 0.112117 0.133678 0.68192 0.697718 0.695444 0.697785 0.68192 0.697718 0.695444 0.697785 0.121582 0.122922 0.133678 0.11039 0.290715 0.271028 0.270698 0.304227 0.026056 0.0517778 0.693827 0.682808 0.683152 0.708802 0.11039 0.0638383 0.0203517 0.022688 0.0263047 0.797015 0.796725 0.799385 0.801732 0.0129762 0.0966105 0.0959853 0.0959403 0.101577 0.171675 0.00313378 0.00380253 0.362618 0.365037 0.363677 0.317635 0.00263797 1.75935 1.76668 1.83408 1.83509 2.0944 2.0944 2.0944 2.0944 0.504298 0.506427 0.519202 0.519599 0.0981027 0.102156 0.0980176 0.0985987 0.0889853 0.0894414 0.0858332 0.278828 0.278806 0.271535 0.252453 0.0572148 0.413089 0.40231 0.396714 0.418401 0.39847 0.398119 0.418187 0.417502 0.215348 0.212334 0.144178 0.14202 0.212917 0.218319 0.141972 0.0959853 0.0959403 0.101577 0.0966105 0.258533 0.222117 0.220957 0.222084 0.144178 0.14202 0.141972 0.173282 0.287551 0.284939 0.155406 0.285402 0.286032 0.1535 0.154256 0.163981 0.163807 0.167537 0.112082 0.107553 0.102955 0.102114 0.0889853 0.0894414 0.0892484 0.163981 0.223615 0.163807 0.223819 0.167537 0.229696 0.0129762 0.0238346 0.00851867 0.0253671 0.00847982 0.0175527 0.0179146 0.0179277 0.0156377 0.0139613 0.481455 0.481423 0.483032 0.490351 0.0162125 0.0122718 0.00386762 0.0162125 0.30954 0.309159 0.355177 0.311029 0.598399 0.598399 0.598399 0.598399 0.382703 0.376606 0.376528 0.384574 0.598399 0.598399 0.598399 0.598399 0.167662 0.580842 0.580742 0.580078 0.573872 0.282223 0.325046 0.324897 0.326227 0.217599 0.133364 0.216849 0.216543 0.134294 0.132601 0.00386762 0.400308 0.428443 0.428507 0.433784 

SCALARS maxAngleDeviation float 1
LOOKUP_TABLE default
0.905277 0.905201 0.925537 0.953757 0.491676 0.491927 0.596542 0.507177 0.466686 0.459303 0.459937 0.486341 1.60206 1.60113 1.65542 1.63867 0.427409 0.429048 0.428103 0.431327 0.117106 0.12891 0.117019 0.123974 2.50734 2.50633 2.59243 2.58095 0.897598 0.897598 0.897598 0.897598 0.596542 0.507177 0.491927 0.491676 0.0776668 1.79952 1.84351 1.84406 1.82699 0.15764 0.158459 0.155079 0.15764 0.158459 0.155079 0.0155073 0.0305275 0.00719339 0.00875942 0.0340321 0.366087 1.06301 1.06348 1.03083 1.05337 0.330807 0.257512 0.274109 0.37868 0.418209 0.418242 0.407302 0.866949 0.866056 0.864891 0.803932 1.87939 1.97231 1.89357 1.97324 0.866949 0.866056 0.803932 0.864891 0.251492 0.91931 0.904375 0.904219 0.905452 1.02288 1.04658 1.04317 1.04668 0.897598 0.897598 0.897598 0.897598 0.904375 0.904219 0.91931 0.905452 0.165964 0.168176 0.200517 1.02288 1.04658 1.04317 1.04668 1.02288 1.04658 1.04317 1.04668 0.182373 0.184383 0.200517 0.165585 0.436072 0.406541 0.406046 0.45634 0.0390841 0.0776668 1.04074 1.02421 1.02473 1.0632 0.165585 0.0957575 0.0305275 0.0340321 0.0394571 1.19552 1.19509 1.19908 1.2026 0.0194643 0.144916 0.143978 0.14391 0.152366 0.257512 0.00470067 0.00570379 0.543927 0.547555 0.545515 0.476453 0.00395696 2.63903 2.65002 2.75112 2.75264 2.63903 2.65002 2.75112 2.75264 0.756447 0.75964 0.778803 0.779399 0.147154 0.153235 0.147026 0.147898 0.133478 0.134162 0.12875 0.418242 0.418209 0.407302 0.37868 0.0858223 0.619633 0.603465 0.595071 0.627601 0.597705 0.597178 0.627281 0.626253 0.323022 0.318501 0.216267 0.21303 0.319376 0.327479 0.212958 0.143978 0.14391 0.152366 0.144916 0.387799 0.333175 0.331435 0.333127 0.216267 0.21303 0.212958 0.259923 0.431327 0.427409 0.233108 0.428103 0.429048 0.23025 0.231383 0.245971 0.245711 0.251306 0.168122 0.161329 0.154433 0.153171 0.133478 0.134162 0.133873 0.245971 0.335422 0.245711 0.335728 0.251306 0.344545 0.0194643 0.0357518 0.012778 0.0380507 0.0127197 0.0263291 0.026872 0.0268915 0.0234565 0.020942 0.722183 0.722134 0.724548 0.735526 0.0243188 0.0184076 0.00580143 0.0243188 0.46431 0.463738 0.532765 0.466543 0.897598 0.897598 0.897598 0.897598 0.574054 0.564909 0.564792 0.576861 0.897598 0.897598 0.897598 0.897598 0.251492 0.871263 0.871112 0.870117 0.860808 0.423335 0.48757 0.487346 0.489341 0.326398 0.200045 0.325273 0.324814 0.201441 0.198902 0.00580143 0.600462 0.642665 0.64276 0.650676 

