# vtk DataFile Version 3.0
Generated by GMDS VTK Writer

ASCII
DATASET UNSTRUCTURED_GRID
POINTS 446 float
0 0 0
8 0 0
4 0 0
4 4 0
8 4 0
0 4 0
2 2 0
2 3 0
2 1 0
0 1 0
8 1 0
8 3 0
7 4 0
5 4 0
3 4 0
1 4 0
1 0 0
3 0 0
5 0 0
7 0 0
0 3 0
0.258819 3.03407 0
0.5 3.13397 0
0.707107 3.29289 0
0.866025 3.5 0
0.965926 3.74118 0
3.04051 3.71827 0
3.15875 3.45936 0
3.34514 3.24425 0
3.58458 3.09037 0
3.85769 3.01018 0
4.14231 3.01018 0
4.41542 3.09037 0
4.65486 3.24425 0
4.84125 3.45936 0
4.95949 3.71827 0
7.03407 3.74118 0
7.13397 3.5 0
7.29289 3.29289 0
7.5 3.13397 0
7.74118 3.03407 0
7.74118 0.965926 0
7.5 0.866025 0
7.29289 0.707107 0
7.13397 0.5 0
7.03407 0.258819 0
4.95949 0.281733 0
4.84125 0.540641 0
4.65486 0.75575 0
4.41542 0.909632 0
4.14231 0.989821 0
3.85769 0.989821 0
3.58458 0.909632 0
3.34514 0.75575 0
3.15875 0.540641 0
3.04051 0.281733 0
0.965926 0.258819 0
0.866025 0.5 0
0.707107 0.707107 0
0.5 0.866025 0
0.258819 0.965926 0
2.28173 1.04051 0
2.54064 1.15875 0
2.75575 1.34514 0
2.90963 1.58458 0
2.98982 1.85769 0
2.98982 2.14231 0
2.90963 2.41542 0
2.75575 2.65486 0
2.54064 2.84125 0
2.28173 2.95949 0
1.71827 2.95949 0
1.45936 2.84125 0
1.24425 2.65486 0
1.09037 2.41542 0
1.01018 2.14231 0
1.01018 1.85769 0
1.09037 1.58458 0
1.24425 1.34514 0
1.45936 1.15875 0
1.71827 1.04051 0
1.28571 4 0
1.57143 4 0
1.85714 4 0
2.14286 4 0
2.42857 4 0
2.71429 4 0
5.28571 4 0
5.57143 4 0
5.85714 4 0
6.14286 4 0
6.42857 4 0
6.71429 4 0
8 2.71429 0
8 2.42857 0
8 2.14286 0
8 1.85714 0
8 1.57143 0
8 1.28571 0
6.71429 0 0
6.42857 0 0
6.14286 0 0
5.85714 0 0
5.57143 0 0
5.28571 0 0
2.71429 0 0
2.42857 0 0
2.14286 0 0
1.85714 0 0
1.57143 0 0
1.28571 0 0
0 1.28571 0
0 1.57143 0
0 1.85714 0
0 2.14286 0
0 2.42857 0
0 2.71429 0
5.99727 2 0
4.84075 1.99489 0
6.99524 2.22504 0
6.2505 2.97284 0
6.25875 0.953919 0
5.43442 2.70632 0
3.91391 2.00981 0
5.41391 1.32205 0
6.96075 1.40483 0
5.65652 3.30438 0
5.62388 0.721351 0
6.88218 2.86223 0
4.39117 2.50391 0
4.38596 1.51412 0
3.53209 2.48011 0
3.53055 1.52576 0
7.43608 1.78084 0
6.44707 2.37983 0
5.41391 2.10044 0
6.36742 1.57484 0
7.46005 2.58837 0
6.56329 3.47147 0
6.63407 0.614435 0
1.41545 0.634722 0
1.41545 3.36528 0
0.568762 2.56225 0
0.568762 1.43775 0
4.83893 1.26994 0
4.84837 2.74607 0
2.55465 0.560472 0
2.55465 3.43953 0
5.93216 2.50038 0
0.505013 2 0
5.93323 1.49996 0
6.88581 0.966029 0
7.47506 1.36761 0
1.82231 3.52922 0
1.82231 0.470782 0
6.12255 0.473737 0
5.22475 3.14842 0
5.1921 0.899862 0
6.12383 3.52055 0
6.60634 1.95559 0
3.42565 2.00551 0
0.865012 2.85863 0
0.865012 1.14137 0
3.19316 2.80684 0
3.19316 1.19316 0
5.18059 1.71125 0
5.8239 1.08052 0
3.96469 1.44184 0
3.96467 2.55817 0
2.88053 3.11947 0
2.88053 0.880533 0
5.85507 2.93582 0
5.07749 2.31452 0
7.57446 2.19333 0
4.41463 2.03639 0
6.99646 1.84729 0
5.36242 3.56031 0
6.59138 1.23332 0
5.36399 0.444202 0
1.09623 3.18701 0
1.09623 0.812993 0
5.58353 1.74622 0
6.91028 3.23197 0
7.24607 2.91016 0
4.73297 1.64101 0
7.21594 1.08061 0
6.63162 2.70355 0
2.24038 3.64891 0
2.24038 0.351095 0
4.71583 2.33527 0
5.80348 0.358902 0
7.07493 2.58883 0
5.72497 3.75394 0
5.75319 2.24768 0
6.59598 3.06988 0
4.50104 1.2506 0
4.50665 2.74377 0
2.15072 0.729292 0
2.15072 3.27071 0
7.64971 1.61223 0
0.251722 1.75046 0
0.251722 2.24954 0
6.57028 0.944834 0
6.16308 1.34204 0
6.67798 2.49352 0
6.60886 1.67564 0
5.53764 3.01497 0
6.31228 2.11457 0
6.03424 0.82759 0
6.18553 2.69643 0
6.08515 3.20667 0
1.61063 3.68772 0
1.61063 0.312279 0
6.40074 0.302071 0
5.50396 1.00618 0
4.91294 3.03311 0
0.710213 1.76228 0
0.710213 2.23801 0
6.40453 3.67871 0
7.28165 2.14252 0
4.07705 2.27657 0
4.07705 1.72343 0
7.21885 1.57647 0
4.9037 0.980277 0
7.69227 2.72985 0
6.67775 0.339514 0
6.72998 3.69243 0
6.88828 0.675214 0
1.29966 3.68161 0
1.29966 0.318392 0
3.2498 2.38348 0
3.64239 2.7899 0
3.63482 1.21831 0
3.22432 1.64051 0
6.11418 1.72149 0
1.68966 3.27235 0
1.68966 0.727645 0
6.3267 0.719298 0
3.76317 1.71981 0
3.77233 2.31018 0
0.487322 2.87516 0
0.487322 1.12484 0
7.71236 1.94034 0
5.48588 2.39641 0
5.14066 1.179 0
5.13725 2.82772 0
6.4278 3.19431 0
2.61587 3.15149 0
2.86017 3.40767 0
2.85452 0.593027 0
2.63181 0.848537 0
5.12516 2.03319 0
0.849352 1.39744 0
0.849352 2.60256 0
6.04186 2.26067 0
2.73523 3.69561 0
2.73886 0.305251 0
1.36108 0.877873 0
1.36108 3.12213 0
7.72004 1.24233 0
4.21099 1.28701 0
4.21246 2.71477 0
5.12664 0.544383 0
0.265218 1.4818 0
0.265218 2.5182 0
5.69592 2.70277 0
5.1379 3.46404 0
7.71535 2.46338 0
1.1344 3.45624 0
1.1344 0.543764 0
1.13073 1.07158 0
1.13073 2.92842 0
5.111 1.47418 0
5.8265 1.74685 0
5.69222 1.31007 0
6.37442 1.83457 0
7.22184 2.42219 0
6.87796 3.45591 0
5.97787 3.75326 0
2.02225 3.75987 0
2.02225 0.240134 0
6.68894 2.23696 0
0.789159 2.00006 0
7.45703 2.88126 0
5.38464 0.678188 0
0.201691 2 0
6.9987 1.19414 0
4.62497 2.96117 0
5.41439 3.33366 0
5.99321 0.2084 0
2.95726 2.86109 0
3.13891 0.957256 0
2.9566 1.14202 0
3.14202 3.0434 0
7.07295 3.06311 0
5.66468 1.96276 0
4.63112 1.03806 0
7.09814 0.809047 0
7.49341 1.07067 0
5.16533 2.53823 0
6.84745 2.04712 0
7.17386 1.32473 0
5.3855 1.59866 0
4.61766 1.86338 0
2.47076 3.72795 0
2.47128 0.272171 0
4.181 2.00785 0
1.94139 3.2462 0
1.94139 0.753797 0
5.85219 3.45766 0
0.898665 3.09187 0
0.898665 0.908127 0
5.51522 0.240604 0
4.93355 1.76043 0
5.82217 0.619587 0
3.39729 1.08462 0
3.0873 2.60427 0
3.0728 1.39364 0
3.38166 2.94062 0
3.52071 2.23225 0
3.52071 1.76775 0
3.19031 2 0
5.20758 3.75293 0
5.38372 1.86104 0
4.66735 2.122 0
6.0693 2.86205 0
6.35876 1.18421 0
4.6444 2.51796 0
5.20851 0.25182 0
0.263354 1.216 0
0.263354 2.784 0
3.65275 2.00755 0
6.89506 0.435001 0
0.68133 2.99213 0
0.68133 1.00787 0
6.72713 1.42378 0
6.09099 1.11336 0
3.94158 1.21544 0
3.94259 2.78573 0
5.4532 3.76283 0
3.34773 2.66754 0
3.34216 1.34267 0
4.64536 1.47392 0
0.686579 2.75924 0
0.686579 1.24076 0
4.89001 2.45675 0
4.33848 1.7628 0
4.9519 0.743575 0
1.03594 1.30802 0
1.03594 2.69198 0
5.27864 2.28497 0
5.64431 1.53772 0
4.95434 3.26984 0
7.44493 1.58429 0
4.29788 2.23649 0
6.20264 3.78149 0
5.94068 1.26919 0
5.78518 0.860897 0
5.66883 2.50239 0
5.57932 0.50035 0
7.80143 2.24303 0
3.72745 1.43192 0
3.74325 2.57418 0
5.82141 3.16253 0
4.8861 2.20944 0
7.24257 1.90483 0
7.81758 1.44714 0
5.57728 3.5288 0
1.4457 3.83378 0
1.4457 0.16622 0
4.16912 1.52634 0
4.16665 2.47506 0
6.7886 1.16378 0
6.59839 0.16428 0
3.06193 3.26128 0
2.75307 1.075 0
2.75001 2.92563 0
3.05671 0.736899 0
7.45916 2.37294 0
6.8829 1.6293 0
6.84899 2.67958 0
5.33352 2.92436 0
6.56123 3.82853 0
6.32092 3.41434 0
7.84999 2.86054 0
1.13783 0.144303 0
1.13783 3.8557 0
6.86067 3.85 0
6.81993 0.199602 0
7.46075 2.01311 0
6.7884 1.83099 0
6.21441 2.44073 0
6.19953 1.91766 0
6.74527 0.808485 0
0.933566 3.30852 0
0.933566 0.691476 0
7.07267 2.03336 0
2.3543 3.1605 0
2.35658 0.839503 0
6.80612 3.05918 0
5.93496 2.73558 0
6.6969 3.24712 0
4.34081 1.10961 0
4.34055 2.89051 0
7.82041 1.74441 0
7.06345 2.78192 0
7.07075 3.30999 0
0.883475 1.62655 0
0.883475 2.37345 0
7.2539 2.69546 0
6.21759 0.196842 0
7.32008 0.906691 0
2.32054 3.45729 0
2.32087 0.542729 0
7.31368 3.07454 0
1.60015 3.47544 0
1.60015 0.524562 0
6.46944 1.40564 0
6.40619 0.518114 0
6.70533 2.8823 0
3.2994 2.16353 0
3.30203 1.83653 0
6.14448 1.53458 0
1.78544 3.80403 0
1.78544 0.195971 0
5.32616 1.11573 0
0.487746 2.33104 0
0.487746 1.66899 0
4.86307 1.5066 0
6.45939 2.887 0
2.2793 0.155468 0
2.27927 3.84454 0
2.08293 3.48536 0
2.08299 0.514638 0
6.42496 2.59986 0
2.87341 0.146746 0
2.8725 3.85347 0
6.91799 2.44102 0
7.85905 1.1218 0
4.52076 2.29147 0
1.25179 3.28266 0
1.25179 0.717338 0
5.72717 0.154263 0
4.54264 1.65912 0
1.56756 3.10663 0
1.56756 0.893373 0

CELLS 768 3072
3 416 229 140 
3 415 141 228 
3 418 139 225 
3 212 229 416 
3 211 415 228 
3 383 246 210 
3 213 418 225 
3 158 383 210 
3 259 152 366 
3 397 70 7 
3 398 8 61 
3 204 437 281 
3 330 240 142 
3 329 143 241 
3 366 152 199 
3 170 249 250 
3 169 247 248 
3 146 250 249 
3 147 248 247 
3 198 397 7 
3 197 8 398 
3 93 267 224 
3 264 330 142 
3 263 143 329 
3 117 193 254 
3 148 254 193 
3 177 202 326 
3 437 119 281 
3 128 294 405 
3 128 399 294 
3 121 326 202 
3 136 275 205 
3 159 205 275 
3 46 262 328 
3 209 429 434 
3 120 429 209 
3 93 94 267 
3 253 408 142 
3 252 143 407 
3 175 365 222 
3 127 284 214 
3 417 326 203 
3 88 89 192 
3 95 96 242 
3 95 242 360 
3 408 217 142 
3 407 143 216 
3 166 214 274 
3 168 220 239 
3 167 238 221 
3 136 417 203 
3 124 274 214 
3 175 222 379 
3 130 195 260 
3 129 261 196 
3 104 328 312 
3 186 204 434 
3 194 429 246 
3 121 237 208 
3 171 265 206 
3 134 434 204 
3 122 206 265 
3 112 113 200 
3 114 115 201 
3 194 246 401 
3 138 218 226 
3 159 207 281 
3 155 208 237 
3 134 281 207 
3 139 237 202 
3 124 272 302 
3 120 246 429 
3 126 206 288 
3 151 185 297 
3 121 202 237 
3 124 244 272 
3 139 332 225 
3 138 401 246 
3 139 227 332 
3 135 243 193 
3 152 298 185 
3 133 242 199 
3 178 328 262 
3 120 325 210 
3 156 245 215 
3 171 210 325 
3 212 369 229 
3 211 228 368 
3 35 322 266 
3 119 300 281 
3 134 207 391 
3 26 248 255 
3 55 256 249 
3 117 295 193 
3 157 214 284 
3 145 245 299 
3 25 228 268 
3 56 269 229 
3 232 361 337 
3 231 338 362 
3 186 380 204 
3 151 286 185 
3 137 224 267 
3 80 308 236 
3 71 235 307 
3 53 291 315 
3 68 290 316 
3 63 317 292 
3 28 318 293 
3 145 299 345 
3 72 271 258 
3 79 257 270 
3 126 363 206 
3 152 185 301 
3 156 288 206 
3 144 244 223 
3 157 223 244 
3 145 196 287 
3 144 296 195 
3 123 239 220 
3 123 221 238 
3 120 210 246 
3 186 434 429 
3 207 254 391 
3 127 214 357 
3 145 215 245 
3 186 419 380 
3 183 405 294 
3 177 372 202 
3 136 203 422 
3 130 342 195 
3 26 27 248 
3 54 55 249 
3 122 243 299 
3 151 202 372 
3 46 47 262 
3 129 196 327 
3 172 350 251 
3 117 254 207 
3 24 25 268 
3 56 57 269 
3 69 397 247 
3 62 250 398 
3 103 104 312 
3 69 70 397 
3 61 62 398 
3 149 427 200 
3 149 201 426 
3 8 308 80 
3 7 71 307 
3 167 337 361 
3 168 362 338 
3 112 200 263 
3 115 264 201 
3 114 201 285 
3 113 285 200 
3 44 227 297 
3 176 266 322 
[...]
POINT_DATA 446
SCALARS GMDS_ID int 1
LOOKUP_TABLE default
0 1 2 3 4 5 6 7 8 9 10 11 12 13 14 15 16 17 18 19 20 21 22 23 24 25 26 27 28 29 30 31 32 33 34 35 36 37 38 39 40 41 42 43 44 45 46 47 48 49 50 51 52 53 54 55 56 57 58 59 60 61 62 63 64 65 66 67 68 69 70 71 72 73 74 75 76 77 78 79 80 81 82 83 84 85 86 87 88 89 90 91 92 93 94 95 96 97 98 99 100 101 102 103 104 105 106 107 108 109 110 111 112 113 114 115 116 117 118 119 120 121 122 123 124 125 126 127 128 129 130 131 132 133 134 135 136 137 138 139 140 141 142 143 144 145 146 147 148 149 150 151 152 153 154 155 156 157 158 159 160 161 162 163 164 165 166 167 168 169 170 171 172 173 174 175 176 177 178 179 180 181 182 183 184 185 186 187 188 189 190 191 192 193 194 195 196 197 198 199 200 201 202 203 204 205 206 207 208 209 210 211 212 213 214 215 216 217 218 219 220 221 222 223 224 225 226 227 228 229 230 231 232 233 234 235 236 237 238 239 240 241 242 243 244 245 246 247 248 249 250 251 252 253 254 255 256 257 258 259 260 261 262 263 264 265 266 267 268 269 270 271 272 273 274 275 276 277 278 279 280 281 282 283 284 285 286 287 288 289 290 291 292 293 294 295 296 297 298 299 300 301 302 303 304 305 306 307 308 309 310 311 312 313 314 315 316 317 318 319 320 321 322 323 324 325 326 327 328 329 330 331 332 333 334 335 336 337 338 339 340 341 342 343 344 345 346 347 348 349 350 351 352 353 354 355 356 357 358 359 360 361 362 363 364 365 366 367 368 369 370 371 372 373 374 375 376 377 378 379 380 381 382 383 384 385 386 387 388 389 390 391 392 393 394 395 396 397 398 399 400 401 402 403 404 405 406 407 408 409 410 411 412 413 414 415 416 417 418 419 420 421 422 423 424 425 426 427 428 429 430 431 432 433 434 435 436 437 438 439 440 441 442 443 444 445 
SCALARS angle float 1
LOOKUP_TABLE default
0 0 0 0 0 0 0 0 0 0 0 0 0 0 0 0 0 0 0 0 0 1.0472 2.0944 3.14159 4.18879 5.23599 1.1424 2.28479 3.42719 4.56959 5.71199 0.571199 1.7136 2.85599 3.99839 5.14079 1.0472 2.0944 3.14159 4.18879 5.23599 1.0472 2.0944 3.14159 4.18879 5.23599 1.1424 2.28479 3.42719 4.56959 5.71199 0.571199 1.7136 2.85599 3.99839 5.14079 1.0472 2.0944 3.14159 4.18879 5.23599 1.1424 2.28479 3.42719 4.56959 5.71199 0.571199 1.7136 2.85599 3.99839 5.14079 1.1424 2.28479 3.42719 4.56959 5.71199 0.571199 1.7136 2.85599 3.99839 5.14079 0 0 0 0 0 0 0 0 0 0 0 0 0 0 0 0 0 0 0 0 0 0 0 0 0 0 0 0 0 0 0 0 0 0 0 0 0.0907042 0.143108 0.0162421 0.0885831 6.13063 0.239191 6.2787 0.143587 0.443119 6.20883 0.338596 2.56319 0.809616 5.69186 6.10495 6.2653 0.115681 0.0710899 0.202022 0.0505555 5.95248 0.215674 5.65524 5.77992 0.501825 6.03131 0.252165 4.98628 1.76703 0.489537 5.76902 0.100075 0.000119693 0.0564028 4.23417 0.515306 0.0119565 6.26883 6.20093 5.1127 1.72814 0.0286785 0.0865993 6.23589 3.03715 3.24609 3.28981 3.11403 6.21253 0.0998806 6.26654 0.00937719 3.46223 2.85192 0.0270204 0.590496 6.26714 0.11636 0.124518 6.13115 6.22474 0.763731 2.79796 3.48583 0.0838919 2.82648 3.47495 5.78071 2.26729 0.08614 6.13217 0.14651 0.781501 0.0899353 6.05325 6.26246 0.135014 0.30214 5.16612 1.37761 0.410216 5.86307 0.100889 0.0419021 6.24135 5.85695 6.28139 0.0401233 0.105573 6.23719 0.08072 6.25066 0.0812145 0.038672 0.0112606 6.2712 6.12772 0.392404 2.81418 0.451137 5.83169 0.0596437 0.010052 0.170802 6.1429 0.281653 3.36286 5.76266 5.78424 0.210521 4.72017 6.1336 0.149146 1.05275 5.02914 1.15587 5.05974 0.063691 0.405624 5.87535 6.04795 6.25751 6.24099 0.818087 5.4652 0.026225 0.248718 6.11531 1.5537 0.154141 4.75159 3.24006 2.83445 1.53878 0.210819 1.72617 4.55677 0.0966822 0.226435 6.05111 4.48607 1.79741 0.408129 5.66062 0.705466 1.74764 0.0365864 6.24667 0.1002 5.12327 6.18698 4.62064 1.66232 3.21559 3.06784 5.93921 0.0805716 0.10907 0.0779295 6.17255 1.76073 0.00217574 6.23179 0.0492949 0.05611 6.28312 4.30444 0.86626 2.47885e-05 1.25329 1.98197 6.04778 6.27636 2.98196 2.8317 3.36309 3.51705 3.15061 0.116506 4.68705 3.10217 1.84973 0.774486 0.0726432 0.873427 0.0224796 6.14786 6.21114 0.0695674 0.0346742 6.23966 0.0399634 6.26389 2.88752 3.39582 0.261918 6.07869 0.110558 1.876 1.8872 4.40055 4.39008 0.0329807 6.13517 6.26448 6.23004 0.0946673 0.342388 0.0652926 6.18826 1.12372 0.877201 6.185 0.098227 6.24861 5.08005 2.16506 4.11817 0.150761 6.24815 0.170515 6.10226 6.25101 4.11296 3.15499 5.45806 0.984715 5.29996 1.03914 6.04413 2.27132 2.8063 3.47688 0.38145 0.0822306 3.9601 0.215892 0.322651 0.0169215 0.0415611 0.146385 0.150987 0.363022 6.26958 0.269183 5.92543 6.26864 0.518181 0.0936926 0.08338 6.20956 6.26351 0.0194671 5.95507 0.397302 0.0724819 6.13216 3.45129 3.22926 3.08854 2.84828 6.19197 0.201654 6.24003 0.0625965 0.0401286 0.0869511 5.76002 0.433983 5.84912 0.460852 5.64723 0.0359657 0.118804 0.0853284 0.0784679 5.33068 3.09037 3.19297 0.0639288 5.33455 0.940848 2.3641 0.0722818 0.746973 5.15412 1.19505 0.0281874 4.26483 3.07122 1.1541 5.12898 5.44731 6.22403 2.52447 5.88655 0.386107 3.21368 0.142595 6.13908 0.0167973 6.01976 0.237359 0.148638 6.00163 0.0394542 6.28032 0.00216758 0.501987 6.09223 0.191021 5.59193 0.132534 0.0430995 6.2387 6.11208 0.1655 0.0831074 5.80929 0.47177 6.25114 0.476227 0.587895 1.73767 4.54635 0.0649394 5.82138 1.30493 4.97818 
VECTORS cross_X float
1 0 0 1 0 0 1 0 0 1 0 0 1 0 0 1 0 0 1 0 0 1 0 0 1 0 0 1 0 0 1 0 0 1 0 0 1 0 0 1 0 0 1 0 0 1 0 0 1 0 0 1 0 0 1 0 0 1 0 0 1 0 0 0.965926 0.258819 0 0.866025 0.5 0 0.707107 0.707107 0 0.5 0.866025 0 0.258819 0.965926 0 0.959493 0.281733 0 0.841254 0.540641 0 0.654861 0.75575 0 0.415415 0.909632 0 0.142315 0.989821 0 0.989821 0.142315 0 0.909632 0.415415 0 0.75575 0.654861 0 0.540641 0.841254 0 0.281733 0.959493 0 0.965926 0.258819 0 0.866025 0.5 0 0.707107 0.707107 0 0.5 0.866025 0 0.258819 0.965926 0 0.965926 0.258819 0 0.866025 0.5 0 0.707107 0.707107 0 0.5 0.866025 0 0.258819 0.965926 0 0.959493 0.281733 0 0.841254 0.540641 0 0.654861 0.75575 0 0.415415 0.909632 0 0.142315 0.989821 0 0.989821 0.142315 0 0.909632 0.415415 0 0.75575 0.654861 0 0.540641 0.841254 0 0.281733 0.959493 0 0.965926 0.258819 0 0.866025 0.5 0 0.707107 0.707107 0 0.5 0.866025 0 0.258819 0.965926 0 0.959493 0.281733 0 0.841254 0.540641 0 0.654861 0.75575 0 0.415415 0.909632 0 0.142315 0.989821 0 0.989821 0.142315 0 0.909632 0.415415 0 0.75575 0.654861 0 0.540641 0.841254 0 0.281733 0.959493 0 0.959493 0.281733 0 0.841254 0.540641 0 0.654861 0.75575 0 0.415415 0.909632 0 0.142315 0.989821 0 0.989821 0.142315 0 0.909632 0.415415 0 0.75575 0.654861 0 0.540641 0.841254 0 0.281733 0.959493 0 1 0 0 1 0 0 1 0 0 1 0 0 1 0 0 1 0 0 1 0 0 1 0 0 1 0 0 1 0 0 1 0 0 1 0 0 1 0 0 1 0 0 1 0 0 1 0 0 1 0 0 1 0 0 1 0 0 1 0 0 1 0 0 1 0 0 1 0 0 1 0 0 1 0 0 1 0 0 1 0 0 1 0 0 1 0 0 1 0 0 1 0 0 1 0 0 1 0 0 1 0 0 1 0 0 1 0 0 0.999743 0.0226741 0 0.99936 0.0357693 0 0.999992 0.0040605 0 0.999755 0.022144 0 0.0381294 0.999273 0 0.998213 0.0597622 0 0.00112027 0.999999 0 0.999356 0.035889 0 0.99387 0.110553 0 0.0185885 0.999827 0 0.996419 0.0845479 0 0.80162 0.597835 0 0.979586 0.201025 0 0.147294 0.989093 0 0.0445443 0.999007 0 0.00447075 0.99999 0 0.999582 0.0289163 0 0.999842 0.0177715 0 0.998725 0.0504841 0 0.99992 0.0126385 0 0.0825834 0.996584 0 0.998547 0.0538924 0 0.156343 0.987703 0 0.125484 0.992096 0 0.992141 0.125127 0 0.0629276 0.998018 0 0.998014 0.0629994 0 0.318574 0.947898 0 0.904001 0.42753 0 0.99252 0.122079 0 0.128188 0.99175 0 0.999687 0.0250161 0 1 2.99232e-05 0 0.999901 0.0141002 0 0.490143 0.871642 0 0.991713 0.128471 0 0.999996 0.00298911 0 0.00358876 0.999994 0 0.0205616 0.999789 0 0.288463 0.957491 0 0.908115 0.418721 0 0.999974 0.00716957 0 0.999766 0.0216481 0 0.0118246 0.99993 0 0.725326 0.688405 0 0.688395 0.725336 0 0.680426 0.732817 0 0.711962 0.702218 0 0.0176622 0.999844 0 0.999688 0.0249676 0 0.00416182 0.999991 0 0.999997 0.00234429 0 0.648216 0.761457 0 0.756416 0.654091 0 0.999977 0.00675505 0 0.989123 0.147088 0 0.00401023 0.999992 0 0.999577 0.029086 0 0.999516 0.0311244 0 0.0380007 0.999278 0 0.0146116 0.999893 0 0.981828 0.189775 0 0.765171 0.643827 0 0.643711 0.765269 0 0.99978 0.0209714 0 0.760561 0.649266 0 0.645791 0.763515 0 0.125289 0.99212 0 0.843612 0.536953 0 0.999768 0.0215333 0 0.0377438 0.999287 0 0.999329 0.0366193 0 0.980975 0.194135 0 0.999747 0.0224819 0 0.0574518 0.998348 0 0.0051804 0.999987 0 0.99943 0.0337472 0 0.997149 0.0754631 0 0.27565 0.961258 0 0.941277 0.337635 0 0.994746 0.102374 0 0.104836 0.99449 0 0.999682 0.0252196 0 0.999945 0.0104753 0 0.0104588 0.999945 0 0.106358 0.994328 0 0.000449859 1 0 0.99995 0.0100307 0 0.999652 0.0263902 0 0.0114995 0.999934 0 0.999796 0.0201786 0 0.00813116 0.999967 0 0.999794 0.0203022 0 0.999953 0.00966785 0 0.999996 0.00281515 0 0.00299555 0.999996 0 0.0388561 0.999245 0 0.995192 0.0979436 0 0.762553 0.646925 0 0.993647 0.112545 0 0.112634 0.993637 0 0.999889 0.0149104 0 0.999997 0.002513 0 0.999088 0.0426876 0 0.0350653 0.999385 0 0.997522 0.070355 0 0.666931 0.74512 0 0.129763 0.991545 0 0.124413 0.992231 0 0.998615 0.0526058 0 0.380886 0.924622 0 0.0373884 0.999301 0 0.999305 0.0372778 0 0.965566 0.26016 0 0.308401 0.951256 0 0.958538 0.284964 0 0.301115 0.953588 0 0.999873 0.0159221 0 0.994863 0.101232 0 0.101782 0.994807 0 0.0587745 0.998271 0 0.00641972 0.999979 0 0.0105488 0.999944 0 0.979158 0.203099 0 0.203074 0.979163 0 0.999979 0.0065562 0 0.998067 0.0621396 0 0.041956 0.999119 0 0.925507 0.378731 0 0.999258 0.0385257 0 0.373611 0.927585 0 0.689487 0.724298 0 0.759266 0.65078 0 0.926913 0.375277 0 0.998611 0.0526803 0 0.908322 0.418272 0 0.418329 0.908296 0 0.999708 0.0241682 0 0.998398 0.0565785 0 0.0579855 0.998317 0 0.434316 0.900761 0 0.900729 0.434381 0 0.994799 0.101855 0 0.155014 0.987912 0 0.984488 0.175454 0 0.906064 0.423141 0 0.999958 0.00914648 0 0.00912818 0.999958 0 0.999686 0.0250474 0 0.285931 0.95825 0 0.0240501 0.999711 0 0.403773 0.914859 0 0.914883 0.40372 0 0.693906 0.720066 0 0.720023 0.69395 0 0.0858876 0.996305 0 0.999797 0.0201415 0 0.999628 0.0272641 0 0.99981 0.0194811 0 0.027656 0.999618 0 0.904674 0.426104 0 1 0.000543936 0 0.0128478 0.999917 0 0.999924 0.0123234 0 0.999902 0.014027 0 1.54237e-05 1 0 0.474755 0.880118 0 0.976641 0.214876 0 1 6.19713e-06 0 0.951315 0.308221 0 0.879735 0.475464 0 0.0588177 0.998269 0 0.00170523 0.999999 0 0.734755 0.678332 0 0.759713 0.650259 0 0.666888 0.745158 0 0.637719 0.770269 0 0.705512 0.708698 0 0.999576 0.0291223 0 0.388528 0.921437 0 0.714041 0.700103 0 0.89497 0.446127 0 0.981314 0.192414 0 0.999835 0.0181598 0 0.976255 0.216626 0 0.999984 0.00561988 0 0.0338245 0.999428 0 0.0180109 0.999838 0 0.999849 0.017391 0 0.999962 0.00866844 0 0.0108816 0.999941 0 0.99995 0.00999067 0 0.00482414 0.999988 0 0.750564 0.660797 0 0.660768 0.75059 0 0.997857 0.0654328 0 0.051102 0.998693 0 0.999618 0.027636 0 0.892021 0.451994 0 0.890752 0.45449 0 0.453473 0.89127 0 0.455805 0.89008 0 0.999966 0.00824507 0 0.0369952 0.999315 0 0.0046761 0.999989 0 0.013285 0.999912 0 0.99972 0.0236646 0 0.996339 0.0854926 0 0.999867 0.0163224 0 0.0237296 0.999718 0 0.960798 0.27725 0 0.97605 0.217547 0 0.0245446 0.999699 0 0.999698 0.0245543 0 0.00864344 0.999963 0 0.29627 0.955104 0 0.857057 0.515221 0 0.515212 0.857063 0 0.99929 0.0376814 0 0.00875929 0.999962 0 0.999092 0.042616 0 0.0452163 0.998977 0 0.00804382 0.999968 0 0.516327 0.856392 0 0.704735 0.709471 0 0.204822 0.978799 0 0.969851 0.2437 0 0.243339 0.969941 0 0.966445 0.256872 0 0.0597287 0.998215 0 0.84307 0.537803 0 0.763827 0.645421 0 0.645422 0.763826 0 0.995456 0.095218 0 0.999789 0.0205562 0 0.548669 0.83604 0 0.998544 0.0539468 0 0.996749 0.0805753 0 0.999991 0.00423035 0 0.999946 0.0103901 0 0.99933 0.0365882 0 0.999288 0.0377378 0 0.995885 0.0906309 0 0.00340008 0.999994 0 0.997736 0.067245 0 0.0893196 0.996003 0 0.00363589 0.999993 0 0.991621 0.129183 0 0.999726 0.023421 0 0.999783 0.0208435 0 0.0184055 0.999831 0 0.00491954 0.999988 0 0.999988 0.00486676 0 0.081938 0.996637 0 0.995071 0.0991624 0 0.999836 0.0181195 0 0.0377486 0.999287 0 0.650296 0.759681 0 0.691441 0.722433 0 0.716422 0.697667 0 0.757011 0.653402 0 0.0228011 0.99974 0 0.99873 0.0503922 0 0.0107884 0.999942 0 0.999878 0.0156485 0 0.99995 0.010032 0 0.999764 0.0217361 0 0.13042 0.991459 0 0.99412 0.108283 0 0.108304 0.994118 0 0.99337 0.114958 0 0.158321 0.987388 0 0.99996 0.00899131 0 0.999559 0.0296967 0 0.999772 0.0213305 0 0.999808 0.0196157 0 0.235882 0.971782 0 0.716104 0.697994 0 0.697966 0.716131 0 0.999872 0.0159815 0 0.234942 0.972009 0 0.972465 0.233049 0 0.83037 0.557212 0 0.999837 0.0180695 0 0.982614 0.18566 0 0.278532 0.960427 0 0.955701 0.294338 0 0.999975 0.0070468 0 0.483447 0.875374 0 0.719437 0.694558 0 0.958665 0.284538 0 0.284564 0.958657 0 0.207451 0.978245 0 0.0147879 0.999891 0 0.807369 0.590047 0 0.0989975 0.995088 0 0.995345 0.0963768 0 0.694249 0.719735 0 0.999365 0.0356411 0 0.0360189 0.999351 0 0.999991 0.0041993 0 0.0658092 0.997832 0 0.99824 0.059305 0 0.99931 0.0371509 0 0.0703298 0.997524 0 0.999951 0.0098634 0 0.00071658 1 0 1 0.000541894 0 0.992136 0.125168 0 0.0477213 0.998861 0 0.99886 0.0477371 0 0.171954 0.985105 0 0.999451 0.0331275 0 0.999942 0.0107747 0 0.0111214 0.999938 0 0.0427623 0.999085 0 0.999144 0.0413633 0 0.999784 0.0207754 0 0.118198 0.99299 0 0.993053 0.117669 0 0.00801163 0.999968 0 0.992921 0.118776 0 0.989219 0.146445 0 0.907115 0.420883 0 0.420694 0.907203 0 0.999868 0.0162341 0 0.115196 0.993343 0 0.947256 0.320477 0 0.320494 0.94725 0 
VECTORS VY float