# vtk DataFile Version 3.0
Generated by GMDS VTK Writer

ASCII
DATASET UNSTRUCTURED_GRID
POINTS 711 float
0 0 0
0 2 0
0 4 0
5 1.5 0
5 2 0
4 2.5 0
4 1.5 0
5 2.5 0
1 4 0
1 0 0
0.195277 3.99996 0
0.390291 3.99118 0
0.583766 3.96512 0
0.774874 3.92514 0
0.963456 3.87452 0
1.14961 3.81558 0
1.33352 3.74993 0
1.51545 3.679 0
1.69597 3.60454 0
1.87551 3.52774 0
2.05437 3.44937 0
2.23279 3.37 0
2.41096 3.29006 0
2.58904 3.20994 0
2.76721 3.13 0
2.94563 3.05063 0
3.12449 2.97226 0
3.30403 2.89546 0
3.48455 2.821 0
3.66648 2.75007 0
3.85039 2.68442 0
4.03654 2.62548 0
4.22513 2.57486 0
4.41623 2.53488 0
4.60971 2.50882 0
4.80472 2.50004 0
0.195277 3.98657e-05 0
0.390291 0.00881739 0
0.583766 0.0348828 0
0.774874 0.0748603 0
0.963456 0.125478 0
1.14961 0.184424 0
1.33352 0.250068 0
1.51545 0.320995 0
1.69597 0.39546 0
1.87551 0.472264 0
2.05437 0.55063 0
2.23279 0.630003 0
2.41096 0.70994 0
2.58904 0.79006 0
2.76721 0.869997 0
2.94563 0.94937 0
3.12449 1.02774 0
3.30403 1.10454 0
3.48455 1.179 0
3.66648 1.24993 0
3.85039 1.31558 0
4.03654 1.37452 0
4.22513 1.42514 0
4.41623 1.46512 0
4.60971 1.49118 0
4.80472 1.49996 0
-0.196034 3.99037 0
-0.390181 3.96157 0
-0.580569 3.91388 0
-0.765367 3.84776 0
-0.942793 3.76384 0
-1.11114 3.66294 0
-1.26879 3.54602 0
-1.41421 3.41421 0
-1.54602 3.26879 0
-1.66294 3.11114 0
-1.76384 2.94279 0
-1.84776 2.76537 0
-1.91388 2.58057 0
-1.96157 2.39018 0
-1.99037 2.19603 0
-2 2 0
-1.99037 1.80397 0
-1.96157 1.60982 0
-1.91388 1.41943 0
-1.84776 1.23463 0
-1.76384 1.05721 0
-1.66294 0.88886 0
-1.54602 0.731213 0
-1.41421 0.585786 0
-1.26879 0.453979 0
-1.11114 0.337061 0
-0.942793 0.236157 0
-0.765367 0.152241 0
-0.580569 0.0861193 0
-0.390181 0.0384294 0
-0.196034 0.00963055 0
5.19134 1.53806 0
5.35355 1.64645 0
5.46194 1.80866 0
5.5 2 0
5.46194 2.19134 0
5.35355 2.35355 0
5.19134 2.46194 0
0.0972304 2 0
1.58795 2.005 0
0.85084 1.22403 0
0.875714 2.78022 0
2.67541 2 0
-0.920515 2.06498 0
-0.449036 1.14254 0
-0.399388 2.8796 0
1.68035 2.7863 0
1.63404 1.21733 0
3.46175 2.00198 0
0.220698 0.762984 0
0.842379 1.98935 0
0.265407 3.25329 0
-1.11845 1.32851 0
-1.07008 2.73743 0
2.29732 2.58106 0
2.26266 1.42668 0
0.264073 2.62016 0
0.283449 1.41873 0
4.05764 2.00116 0
-0.417011 1.74081 0
-0.388073 2.32164 0
0.794322 0.668208 0
1.23548 3.18187 0
-0.287019 0.592045 0
3.0676 1.60673 0
3.06098 2.39199 0
-0.250891 3.44251 0
-1.44612 1.81948 0
1.255 2.41737 0
1.25556 1.59235 0
2.1672 2.06277 0
1.28338 0.807563 0
-0.892595 0.849962 0
-0.804699 3.23043 0
-1.43423 2.33717 0
0.769617 3.38771 0
4.70645 2.00188 0
1.87357 1.62199 0
0.625802 2.37697 0
2.04131 2.96099 0
2.07921 1.04124 0
1.81346 2.38667 0
2.72581 2.6718 0
2.69001 1.31173 0
0.467757 1.77429 0
-0.0557436 1.12219 0
-0.789317 2.43013 0
0.446076 0.427653 0
3.7445 2.31381 0
3.73746 1.70896 0
5.09699 1.98243 0
-0.816587 1.62292 0
1.62986 3.20854 0
0.0798589 0.398857 0
-0.00635614 2.92212 0
1.68708 0.82286 0
0.482819 1.07232 0
0.148543 3.59001 0
-0.132253 1.48993 0
0.50487 2.9183 0
1.24016 1.20548 0
1.23976 2.78749 0
3.0651 1.9949 0
-0.706886 0.548186 0
-1.4844 1.44358 0
-1.25068 1.02565 0
-1.16941 3.11643 0
0.783632 1.61263 0
-1.47646 2.74134 0
1.21844 2.02715 0
-0.154389 2.61569 0
2.41223 1.79058 0
3.40706 2.47808 0
3.40706 1.52192 0
-0.611639 3.51642 0
0.515333 3.6162 0
4.40631 2.17661 0
2.55591 2.35449 0
4.40442 1.82239 0
-0.782392 1.18097 0
-0.740765 2.86752 0
2.42062 2.90196 0
2.42183 1.06289 0
-0.598316 2.01243 0
-1.63743 2.08372 0
1.09315 0.533253 0
0.287056 2.27826 0
2.74001 1.69745 0
-0.254963 2.02155 0
1.0962 3.49353 0
0.91496 3.09845 0
0.954892 0.93786 0
-1.10338 2.33736 0
-0.033215 2.29184 0
0.941514 2.26399 0
-0.586309 1.43353 0
-0.469036 3.20298 0
1.55124 1.69208 0
-0.546238 0.829657 0
0.56046 1.38427 0
-0.522628 2.62241 0
0.128455 1.69833 0
-1.13112 1.7929 0
1.95607 2.64328 0
0.534265 2.07891 0
-1.27315 2.06306 0
4.07258 2.29971 0
4.07133 1.70037 0
1.53398 2.29914 0
-0.0880269 0.799484 0
1.96549 1.30615 0
4.89654 2.21564 0
-0.252645 0.305559 0
3.0305 2.69902 0
3.02404 1.30918 0
0.756784 0.365294 0
1.88632 1.89742 0
-0.00567964 3.28386 0
4.87758 1.78901 0
1.42627 3.41391 0
0.512336 0.748522 0
2.09635 2.36498 0
0.557739 3.19809 0
1.49976 0.612152 0
-0.17942 3.71668 0
0.605751 2.65747 0
3.77075 2 0
1.45597 2.99278 0
2.83822 2.23113 0
-1.00506 0.577784 0
-1.68307 1.66128 0
-0.889839 3.49207 0
2.3602 2.11941 0
3.28189 2.21907 0
3.28189 1.78093 0
1.93693 3.19393 0
1.02807 1.76548 0
-1.64208 2.52651 0
1.01549 2.55582 0
1.48279 2.57671 0
1.05033 1.43695 0
1.45664 1.42474 0
-0.139249 1.78105 0
2.14383 1.63766 0
-0.550778 0.346264 0
-1.51341 1.16195 0
-1.20335 0.756087 0
1.48097 0.995948 0
0.206653 1.09453 0
0.735258 3.66153 0
1.95124 0.79538 0
0.711492 0.940839 0
-1.2934 1.57701 0
-1.42347 2.98639 0
-1.25926 2.54878 0
-0.42397 3.70759 0
4.60179 1.73933 0
-0.316306 0.925039 0
4.60615 2.26048 0
-0.282739 3.135 0
-1.10562 3.34604 0
0.241385 0.252628 0
1.79624 2.95077 0
2.53866 1.48541 0
-1.07066 1.12632 0
-0.998695 3.00776 0
-0.251685 1.24669 0
2.65524 2.90922 0
2.64371 1.11851 0
3.25875 2.62642 0
3.25782 1.37475 0
0.206064 2.83849 0
2.25916 3.12209 0
2.24385 0.890794 0
1.80421 1.01651 0
1.34363 1.80066 0
5.14742 2.22063 0
1.83324 2.20476 0
1.69318 1.39748 0
3.70355 1.46642 0
3.70472 2.53738 0
0.270311 3.79911 0
3.56217 2.22829 0
3.53054 1.76513 0
-0.662635 1.84025 0
2.90082 1.84892 0
0.218534 0.553585 0
0.718128 2.97296 0
-0.723112 0.977993 0
-1.71451 2.30398 0
-0.922052 1.47876 0
0.329358 1.96408 0
-0.843392 2.66967 0
2.8796 2.46434 0
0.0313478 1.32294 0
2.49495 2.70488 0
-0.363686 1.51926 0
-1.7688 1.8789 0
0.686024 1.81286 0
-0.613282 2.23587 0
0.415426 2.44238 0
5.14492 1.72416 0
1.04069 2.91481 0
0.740791 2.17886 0
2.12505 1.24589 0
2.20618 2.791 0
0.750862 2.52862 0
2.35491 2.32344 0
0.288217 3.43918 0
0.44197 1.5575 0
0.0484449 2.48769 0
1.34784 0.483951 0
1.78449 2.59726 0
0.961354 0.3438 0
2.50699 1.27898 0
-0.183122 2.80345 0
0.0291192 2.7146 0
3.88898 1.5135 0
3.89035 2.49093 0
2.91828 1.5136 0
2.83262 2.82067 0
2.85752 1.16606 0
-0.0976439 0.588346 0
-1.24104 2.89899 0
-1.36152 1.28212 0
0.960108 3.66248 0
-0.653074 3.09192 0
-1.09627 1.55096 0
2.09465 1.86145 0
-0.0945627 0.204148 0
1.05283 3.28916 0
5.27499 2.07154 0
1.35391 2.22761 0
0.54998 3.42429 0
1.70436 0.604184 0
1.04519 1.08161 0
-0.826298 2.23072 0
4.26551 2.36815 0
0.431025 0.223468 0
0.576676 0.580347 0
-0.716651 0.748157 0
1.10575 0.709005 0
1.71335 3.38284 0
-0.0318711 3.43246 0
1.01654 2.09678 0
-1.01873 2.53153 0
0.102 0.979621 0
4.26375 1.63223 0
1.27829 3.54078 0
4.4464 1.99971 0
-0.350748 2.52137 0
2.58332 1.81266 0
-1.43484 2.16298 0
3.92105 2.15911 0
3.98487 1.84954 0
0.178504 3.05166 0
4.27082 2.00009 0
-0.954394 1.87968 0
1.21573 0.994766 0
2.06141 1.44263 0
4.88653 1.99672 0
0.650905 1.20726 0
0.419532 1.27043 0
0.088716 3.81608 0
1.69036 1.82838 0
0.3917 2.77371 0
-0.730781 0.346528 0
0.324747 0.964372 0
3.01227 2.20416 0
-0.51046 0.630043 0
-1.70354 1.38273 0
1.44102 3.19473 0
-0.42719 1.93809 0
-0.780694 3.63476 0
-1.45093 0.952652 0
-1.65215 2.77866 0
1.20434 1.41228 0
0.607696 1.65032 0
1.8587 2.78313 0
-1.37213 3.22732 0
2.01822 2.20152 0
1.46363 2.77583 0
0.769496 1.41151 0
-0.630447 3.31598 0
1.16753 2.58842 0
0.11637 2.1971 0
5.26255 1.87058 0
1.45757 1.21403 0
-0.457972 3.38409 0
0.409378 3.10501 0
3.28248 2.03499 0
1.21533 2.99092 0
3.08711 1.78376 0
-0.606949 1.25877 0
0.725345 3.18617 0
-0.549489 2.79424 0
-0.41957 1.33539 0
1.48122 0.798226 0
1.63015 2.4632 0
3.49863 2.62454 0
3.49842 1.37597 0
-1.49179 1.64635 0
2.28862 1.92549 0
-0.347551 2.70962 0
-0.992413 3.17803 0
-1.11345 0.926941 0
2.43786 2.51716 0
0.627688 3.79088 0
-0.226187 2.21462 0
1.41804 2.0281 0
2.83847 2.04608 0
-0.0667989 2.11069 0
-0.434203 2.13283 0
0.379763 0.617019 0
1.14538 2.23902 0
-1.44009 2.54216 0
-0.615884 1.66166 0
-0.778391 1.95413 0
2.44047 3.10709 0
2.44508 0.885161 0
4.46078 2.36979 0
2.37306 1.59186 0
0.291815 1.75186 0
4.45918 1.63005 0
0.0753895 0.651172 0
3.23736 2.40801 0
3.24073 1.53752 0
0.0990521 1.48637 0
0.481638 2.25816 0
0.133857 3.37679 0
4.16565 2.16747 0
0.894956 0.520597 0
2.07653 3.26482 0
-1.27287 2.24306 0
4.17889 1.83445 0
1.25502 3.35233 0
2.65563 2.1826 0
-1.10441 2.14981 0
-0.182419 2.41334 0
0.643171 0.206447 0
2.66648 2.50796 0
1.039 2.71066 0
-1.11362 1.96474 0
-1.28197 1.89205 0
-1.83117 2.12348 0
1.1713 0.363348 0
0.0200527 1.82778 0
-0.583443 3.71621 0
-1.59258 1.91916 0
-0.37664 0.761818 0
-0.924859 0.440612 0
-0.903256 1.04876 0
1.96473 2.47799 0
1.23574 0.636879 0
2.32901 1.25161 0
2.23979 1.09848 0
-0.559771 2.45129 0
2.94276 1.69009 0
1.62285 2.95404 0
1.1729 1.854 0
-0.433965 0.22807 0
0.225321 2.4349 0
3.59465 2.06945 0
0.811696 1.04652 0
-0.23098 1.08381 0
-0.325355 3.28255 0
2.12292 0.765292 0
0.673945 1.98294 0
0.102695 0.147442 0
0.881376 3.47184 0
3.18035 1.19848 0
3.18158 2.80308 0
-0.680623 2.58002 0
2.47626 1.95059 0
4.77108 2.33028 0
-0.738488 1.50917 0
0.952676 0.777735 0
3.6183 1.90088 0
1.51918 1.86457 0
-1.37625 0.765241 0
-1.16019 0.588597 0
-0.38473 0.430853 0
0.249859 1.57615 0
-1.22168 1.17454 0
0.959263 1.58191 0
-0.297703 3.81607 0
0.681761 2.80526 0
-1.67341 1.21255 0
-0.28984 1.83793 0
1.09186 3.09504 0
-0.463772 3.03659 0
1.15357 3.64483 0
1.07512 2.40678 0
-1.2795 2.72072 0
-1.55218 2.9333 0
1.86329 0.663085 0
-0.290361 3.60628 0
0.371229 2.13332 0
4.76808 1.67129 0
5.01941 2.33166 0
1.41817 1.58626 0
2.20923 2.24173 0
-0.0845075 3.8429 0
-0.541146 0.997822 0
0.86549 1.81003 0
-0.940661 2.34669 0
-0.924735 1.25205 0
2.11588 2.58529 0
-0.244938 1.66638 0
-0.920001 2.85394 0
-1.55692 2.25857 0
1.64903 2.16292 0
0.819928 0.223176 0
1.04918 1.28617 0
-1.83895 1.72556 0
0.796834 2.3574 0
2.71385 1.50236 0
-0.0433315 1.64992 0
1.02397 1.9238 0
-0.836993 3.04146 0
-1.79002 1.55276 0
-1.0552 3.50542 0
1.64092 1.06515 0
-0.0580051 3.1222 0
1.55766 3.50238 0
1.79577 1.21914 0
1.97188 1.7235 0
0.450403 3.31597 0
-1.44435 1.99007 0
1.42729 2.43015 0
-0.937334 3.3422 0
1.70917 1.61516 0
1.8911 3.3436 0
[...]
POINT_DATA 711
SCALARS GMDS_ID int 1
LOOKUP_TABLE default
0 1 2 3 4 5 6 7 8 9 10 11 12 13 14 15 16 17 18 19 20 21 22 23 24 25 26 27 28 29 30 31 32 33 34 35 36 37 38 39 40 41 42 43 44 45 46 47 48 49 50 51 52 53 54 55 56 57 58 59 60 61 62 63 64 65 66 67 68 69 70 71 72 73 74 75 76 77 78 79 80 81 82 83 84 85 86 87 88 89 90 91 92 93 94 95 96 97 98 99 100 101 102 103 104 105 106 107 108 109 110 111 112 113 114 115 116 117 118 119 120 121 122 123 124 125 126 127 128 129 130 131 132 133 134 135 136 137 138 139 140 141 142 143 144 145 146 147 148 149 150 151 152 153 154 155 156 157 158 159 160 161 162 163 164 165 166 167 168 169 170 171 172 173 174 175 176 177 178 179 180 181 182 183 184 185 186 187 188 189 190 191 192 193 194 195 196 197 198 199 200 201 202 203 204 205 206 207 208 209 210 211 212 213 214 215 216 217 218 219 220 221 222 223 224 225 226 227 228 229 230 231 232 233 234 235 236 237 238 239 240 241 242 243 244 245 246 247 248 249 250 251 252 253 254 255 256 257 258 259 260 261 262 263 264 265 266 267 268 269 270 271 272 273 274 275 276 277 278 279 280 281 282 283 284 285 286 287 288 289 290 291 292 293 294 295 296 297 298 299 300 301 302 303 304 305 306 307 308 309 310 311 312 313 314 315 316 317 318 319 320 321 322 323 324 325 326 327 328 329 330 331 332 333 334 335 336 337 338 339 340 341 342 343 344 345 346 347 348 349 350 351 352 353 354 355 356 357 358 359 360 361 362 363 364 365 366 367 368 369 370 371 372 373 374 375 376 377 378 379 380 381 382 383 384 385 386 387 388 389 390 391 392 393 394 395 396 397 398 399 400 401 402 403 404 405 406 407 408 409 410 411 412 413 414 415 416 417 418 419 420 421 422 423 424 425 426 427 428 429 430 431 432 433 434 435 436 437 438 439 440 441 442 443 444 445 446 447 448 449 450 451 452 453 454 455 456 457 458 459 460 461 462 463 464 465 466 467 468 469 470 471 472 473 474 475 476 477 478 479 480 481 482 483 484 485 486 487 488 489 490 491 492 493 494 495 496 497 498 499 500 501 502 503 504 505 506 507 508 509 510 511 512 513 514 515 516 517 518 519 520 521 522 523 524 525 526 527 528 529 530 531 532 533 534 535 536 537 538 539 540 541 542 543 544 545 546 547 548 549 550 551 552 553 554 555 556 557 558 559 560 561 562 563 564 565 566 567 568 569 570 571 572 573 574 575 576 577 578 579 580 581 582 583 584 585 586 587 588 589 590 591 592 593 594 595 596 597 598 599 600 601 602 603 604 605 606 607 608 609 610 611 612 613 614 615 616 617 618 619 620 621 622 623 624 625 626 627 628 629 630 631 632 633 634 635 636 637 638 639 640 641 642 643 644 645 646 647 648 649 650 651 652 653 654 655 656 657 658 659 660 661 662 663 664 665 666 667 668 669 670 671 672 673 674 675 676 677 678 679 680 681 682 683 684 685 686 687 688 689 690 691 692 693 694 695 696 697 698 699 700 701 702 703 704 705 706 707 708 709 710 
SCALARS angle float 1
LOOKUP_TABLE default
6.18542 0 0.0977665 0.393107 0 0 0 5.89008 0 0 6.19282 5.92539 5.60293 5.3463 5.14541 4.98416 4.85403 4.75726 4.69226 4.64885 4.62014 4.60254 4.59416 4.59416 4.60254 4.62014 4.64885 4.69226 4.75726 4.85403 4.98416 5.14541 5.3463 5.60293 5.92539 6.19282 0.0903673 0.357792 0.68026 0.936887 1.13778 1.29903 1.42915 1.52592 1.59092 1.63434 1.66304 1.68064 1.68903 1.68903 1.68064 1.66304 1.63434 1.59092 1.52592 1.42915 1.29903 1.13778 0.936887 0.68026 0.357792 0.0903673 0.392699 0.785398 1.1781 1.5708 1.9635 2.35619 2.74889 3.14159 3.53429 3.92699 4.31969 4.71239 5.10509 5.49779 5.89049 6.28319 0.392699 0.785398 1.1781 1.5708 1.9635 2.35619 2.74889 3.14159 3.53429 3.92699 4.31969 4.71239 5.10509 5.49779 5.89049 1.5708 3.14159 4.71239 6.28319 1.5708 3.14159 4.71239 6.07972 0.328602 1.0179 5.25335 0.535595 5.38169 5.61851 5.6017 4.85836 1.43822 0.0492043 0.39681 0.075493 5.64454 2.37358 4.18862 4.75012 1.53862 5.59312 0.48453 0.0262485 5.98587 5.55344 1.02248 4.98966 5.63098 1.41548 4.88747 0.187924 0.304009 5.28363 1.09272 6.05947 1.34964 3.7786 2.81026 5.1971 5.26358 0.0974813 1.37989 5.62821 4.70774 1.58852 4.99779 4.70192 1.59087 0.305347 0.125956 4.94142 0.586779 5.38444 0.882695 0.180424 6.08974 4.79692 0.0692904 5.70571 1.52551 0.749507 5.9613 0.0586855 5.42935 1.26475 5.06214 0.262349 4.6572 1.66183 2.73998 3.49579 0.741753 4.37175 0.0707928 5.63624 1.39199 4.93642 1.35542 1.30577 5.51368 6.01228 4.82421 0.341755 3.72571 4.19789 4.66418 1.62643 5.60771 5.76514 1.25068 5.80255 1.43814 5.87344 5.03594 5.17411 1.13943 4.96767 5.76568 5.67773 5.80749 0.257455 1.17656 4.98237 0.73761 5.22308 0.157137 0.0904169 4.80605 6.09045 5.57825 5.58245 0.729749 5.28355 6.18384 1.5145 6.2177 5.65544 4.72428 1.56239 0.971869 1.04214 5.94107 0.294541 4.8681 0.752909 4.89516 5.39895 1.48031 0.267018 5.43752 0.0307584 4.90906 4.99275 3.82683 0.862216 2.3636 5.30186 5.25047 1.09092 4.68589 0.716522 5.0219 5.28951 5.02956 1.06591 1.30098 6.16564 1.44805 5.0644 2.14882 3.3001 1.41972 0.459698 5.33208 1.60601 0.956404 1.45575 3.83853 4.638 0.72391 0.324989 5.75006 6.02594 6.06601 2.98973 0.247229 4.77673 1.54402 2.87784 3.60617 6.16823 4.64338 1.63392 4.78668 1.50063 5.58963 4.64663 1.6356 1.53272 0.882474 6.05728 5.29598 1.40978 1.25907 5.024 5.88582 5.43458 0.927068 5.74433 1.20177 0.318797 5.30075 4.21395 5.48145 2.14884 6.2228 4.45449 4.79664 0.26775 4.69725 6.10288 0.244882 0.387514 5.37336 5.63419 0.998524 5.13058 5.89485 1.55822 4.71332 5.4416 4.86089 5.69388 0.528447 5.67931 1.40244 4.88152 1.13049 1.59427 5.68058 5.6439 1.037 5.24944 1.50292 4.66673 1.62162 6.06456 3.90729 2.1303 5.15236 3.41506 1.69649 1.23307 6.04168 5.07753 2.57885 5.56579 5.43628 1.56156 1.17882 5.17519 5.61202 0.457297 0.79902 4.42786 1.25288 4.73172 6.10486 6.07881 4.60838 0.298625 0.705584 4.92151 0.0546138 5.5138 1.36415 5.4916 5.82819 0.45171 5.6502 0.0381325 5.74205 1.29136 1.50098 0.150785 0.872704 0.656143 6.21198 1.07395 5.50768 4.78549 0.578132 5.12335 5.09581 1.58093 4.88689 5.81904 1.90802 2.51399 4.4165 1.17443 0.568356 4.79509 3.4288 5.17117 4.95753 0.888745 1.6301 5.18752 5.87365 4.63299 1.36714 0.631743 5.49473 6.12669 5.02711 1.21608 5.20434 5.28457 5.11955 5.96107 1.44846 5.02808 4.85083 1.43501 1.0353 1.14675 5.53579 3.21837 3.18875 4.75462 5.49741 5.73946 0.127008 6.00063 5.89808 5.64424 0.561007 5.64411 4.79132 5.88805 5.56339 4.62952 1.65629 5.79002 1.50221 0.215568 0.54843 0.134785 4.93237 1.40921 0.284419 5.80357 5.84111 5.90605 1.09662 4.64024 5.22964 0.416464 4.96016 5.03651 5.29583 5.65933 0.859802 4.75325 5.19341 5.67791 6.11502 5.76489 1.3107 6.2335 1.06396 6.24451 5.47448 4.13355 3.45748 4.86934 1.33452 1.58419 1.60113 5.24983 1.39295 4.84348 0.637004 5.33138 5.68313 6.00766 1.02592 6.09393 0.103637 1.64591 0.0308624 0.0922405 5.18893 1.57552 4.70879 4.89459 1.05648 6.14719 5.84714 1.14754 0.454975 0.869796 3.06681 3.55978 5.37838 0.358976 2.49781 0.902611 0.595167 5.35023 1.97171 6.00861 5.07503 5.85439 4.98458 5.39606 4.26422 4.004 1.60719 0.406732 5.97744 0.227504 6.07898 1.19214 4.98649 0.115237 5.07127 0.51304 4.95156 2.96037 4.78343 6.1641 3.97221 5.42419 5.60018 1.01195 1.13167 0.737262 5.58798 1.5343 0.0600283 0.347611 3.5018 0.933668 2.5108 1.47123 5.86142 4.80423 1.49033 1.34823 5.4992 5.90845 5.16971 2.74843 1.3173 4.6787 5.34396 0.946106 5.23293 5.89766 5.21467 3.5915 0.916556 6.23222 6.21625 1.48505 1.48651 4.79586 4.68166 5.62245 4.72926 0.404744 1.34533 6.04735 0.159238 5.18724 5.11231 1.1956 3.19735 4.74098 4.98377 0.0979423 0.786086 0.227845 4.93843 4.84685 4.98134 1.45007 4.6218 1.65994 5.25908 1.54797 0.772116 0.673798 5.17158 2.18329 5.82903 5.37816 6.12645 0.0295847 5.34697 3.93843 5.57241 4.06234 1.57812 5.47437 0.803993 4.62481 1.65711 5.80936 5.99415 1.52655 0.16425 4.67507 1.61134 0.0275445 0.419425 1.39842 2.42453 3.7285 4.75039 4.71803 4.81274 4.70793 0.944094 5.76829 1.31365 4.81133 2.07354 0.725406 0.356812 1.57067 4.94717 5.69545 6.23637 4.70514 1.24261 6.22064 0.45951 5.5285 0.424346 5.99335 1.93634 0.0973273 5.74942 0.447455 0.610373 2.36094 5.14559 1.20507 5.42565 5.60131 0.763279 0.185541 4.99872 2.34538 4.89362 0.505659 1.24234 0.236148 1.40803 1.3785 5.40799 5.07349 4.05051 0.61395 5.30973 0.0218406 3.893 1.43902 4.77903 1.61401 5.35379 4.95351 5.0517 0.911429 1.50645 5.71054 5.19674 0.820011 5.35107 5.16281 4.97034 1.23745 5.81585 4.68336 4.67246 4.97911 1.016 5.42668 5.39739 6.25693 0.494112 1.04495 1.04908 4.67549 1.31167 4.95606 1.54073 4.74322 0.729616 5.44043 0.333781 1.91731 4.83798 1.55946 4.74614 2.9793 5.52572 3.84571 1.37262 1.27268 0.773458 5.64934 1.56923 5.55986 5.51787 0.882389 4.99215 6.16663 3.25922 1.21701 1.15952 5.8221 3.64821 5.80689 4.82339 0.607365 1.26806 1.01572 4.71306 4.45943 
VECTORS cross_X float
0.0244392 0.999701 0 1 0 0 0.999701 0.0244392 0 0.995175 0.0981187 0 1 0 0 1 0 0 1 0 0 0.0981187 0.995175 0 1 0 0 1 0 0 0.0225899 0.999745 0 0.0893287 0.996002 0 0.169246 0.985574 0 0.232086 0.972695 0 0.280625 0.959818 0 0.319078 0.947728 0 0.349735 0.936849 0 0.372295 0.928115 0 0.387328 0.921942 0 0.397311 0.917684 0 0.403886 0.914809 0 0.407907 0.913023 0 0.409821 0.912166 0 0.409821 0.912166 0 0.407907 0.913023 0 0.403886 0.914809 0 0.397311 0.917684 0 0.387328 0.921942 0 0.372295 0.928115 0 0.349735 0.936849 0 0.319078 0.947728 0 0.280625 0.959818 0 0.232086 0.972695 0 0.169246 0.985574 0 0.0893287 0.996002 0 0.0225899 0.999745 0 0.999745 0.0225899 0 0.996002 0.0893287 0 0.985574 0.169246 0 0.972695 0.232086 0 0.959818 0.280625 0 0.947728 0.319078 0 0.936849 0.349735 0 0.928115 0.372295 0 0.921942 0.387328 0 0.917684 0.397311 0 0.914809 0.403886 0 0.913023 0.407907 0 0.912166 0.409821 0 0.912166 0.409821 0 0.913023 0.407907 0 0.914809 0.403886 0 0.917684 0.397311 0 0.921942 0.387328 0 0.928115 0.372295 0 0.936849 0.349735 0 0.947728 0.319078 0 0.959818 0.280625 0 0.972695 0.232086 0 0.985574 0.169246 0 0.996002 0.0893287 0 0.999745 0.0225899 0 0.995185 0.0980171 0 0.980785 0.19509 0 0.95694 0.290285 0 0.92388 0.382683 0 0.881921 0.471397 0 0.83147 0.55557 0 0.77301 0.634393 0 0.707107 0.707107 0 0.634393 0.77301 0 0.55557 0.83147 0 0.471397 0.881921 0 0.382683 0.92388 0 0.290285 0.95694 0 0.19509 0.980785 0 0.0980171 0.995185 0 3.77127e-12 1 0 0.995185 0.0980171 0 0.980785 0.19509 0 0.95694 0.290285 0 0.92388 0.382683 0 0.881921 0.471397 0 0.83147 0.55557 0 0.77301 0.634393 0 0.707107 0.707107 0 0.634393 0.77301 0 0.55557 0.83147 0 0.471397 0.881921 0 0.382683 0.92388 0 0.290285 0.95694 0 0.19509 0.980785 0 0.0980171 0.995185 0 0.92388 0.382683 0 0.707107 0.707107 0 0.382683 0.92388 0 5.30671e-12 1 0 0.92388 0.382683 0 0.707107 0.707107 0 0.382683 0.92388 0 0.0508449 0.998707 0 0.996628 0.082058 0 0.967796 0.251737 0 0.254624 0.96704 0 0.991049 0.133499 0 0.223471 0.974711 0 0.165404 0.986226 0 0.169549 0.985522 0 0.348721 0.937226 0 0.936054 0.351857 0 0.999924 0.0123008 0 0.995083 0.09904 0 0.999822 0.0188721 0 0.158985 0.987281 0 0.829048 0.559178 0 0.500038 0.866004 0 0.373952 0.927448 0 0.926928 0.375239 0 0.171662 0.985156 0 0.992672 0.120836 0 0.999978 0.00656208 0 0.0742606 0.997239 0 0.181426 0.983405 0 0.967507 0.252844 0 0.317773 0.948167 0 0.16233 0.986736 0 0.938039 0.346531 0 0.341891 0.93974 0 0.998897 0.0469638 0 0.997113 0.0759291 0 0.247297 0.96894 0 0.962918 0.269795 0 0.0558994 0.998436 0 0.943615 0.331044 0 0.586026 0.810292 0 0.763188 0.646177 0 0.268196 0.963364 0 0.252151 0.967688 0 0.999703 0.0243679 0 0.941085 0.338171 0 0.163014 0.986624 0 0.383758 0.923434 0 0.922175 0.386773 0 0.315847 0.94881 0 0.385101 0.922875 0 0.921947 0.387316 0 0.997088 0.0762626 0 0.999504 0.0314839 0 0.329186 0.944265 0 0.98926 0.146169 0 0.2228 0.974864 0 0.97575 0.218887 0 0.998983 0.0450907 0 0.0483422 0.998831 0 0.363075 0.93176 0 0.99985 0.0173217 0 0.143869 0.989597 0 0.928153 0.372198 0 0.982496 0.186282 0 0.0803848 0.996764 0 0.999892 0.0146708 0 0.211841 0.977304 0 0.950427 0.310946 0 0.300543 0.953768 0 0.99785 0.0655403 0 0.395394 0.918511 0 0.914932 0.403608 0 0.774422 0.632669 0 0.641805 0.766868 0 0.982856 0.184377 0 0.459879 0.887982 0 0.999843 0.0176973 0 0.161033 0.986949 0 0.940057 0.341016 0 0.330367 0.943853 0 0.943136 0.332408 0 0.947189 0.320676 0 0.191191 0.981553 0 0.0676756 0.997707 0 0.356711 0.934215 0 0.996352 0.0853349 0 0.596689 0.802473 0 0.49803 0.86716 0 0.393791 0.9192 0 0.918468 0.395496 0 0.168068 0.985775 0 0.12915 0.991625 0 0.951516 0.3076 0 0.119869 0.99279 0 0.936061 0.351838 0 0.102257 0.994758 0 0.306783 0.951779 0 0.27373 0.961807 0 0.959702 0.281021 0 0.322982 0.946405 0 0.129014 0.991643 0 0.150785 0.988567 0 0.118643 0.992937 0 0.997929 0.0643193 0 0.957052 0.289918 0 0.319502 0.947586 0 0.983046 0.183359 0 0.261934 0.965086 0 0.999228 0.0392741 0 0.999745 0.0226023 0 0.360947 0.932586 0 0.0481644 0.998839 0 0.175322 0.984511 0 0.174289 0.984695 0 0.983404 0.181427 0 0.247316 0.968935 0 0.0248326 0.999692 0 0.929174 0.369644 0 0.0163697 0.999866 0 0.156294 0.987711 0 0.379935 0.925013 0 0.924682 0.380741 0 0.970628 0.240584 0 0.966252 0.257597 0 0.0854244 0.996345 0 0.99729 0.0735687 0 0.346437 0.938073 0 0.982338 0.187118 0 0.340083 0.940395 0 0.219262 0.975666 0 0.932299 0.361688 0 0.997773 0.0667049 0 0.209845 0.977735 0 0.99997 0.00768953 0 0.336814 0.941571 0 0.317041 0.948412 0 0.576215 0.817298 0 0.976858 0.213889 0 0.83044 0.557108 0 0.242878 0.970057 0 0.255319 0.966857 0 0.963039 0.269361 0 0.388795 0.921324 0 0.983999 0.178174 0 0.310121 0.950697 0 0.245873 0.969302 0 0.308302 0.951289 0 0.964705 0.263334 0 0.947572 0.319542 0 0.0293812 0.999568 0 0.935186 0.354158 0 0.300003 0.953938 0 0.859142 0.511738 0 0.678539 0.734565 0 0.937671 0.347525 0 0.993403 0.114672 0 0.235543 0.971864 0 0.920475 0.390801 0 0.971551 0.236829 0 0.934502 0.355957 0 0.573822 0.81898 0 0.399799 0.916603 0 0.983668 0.179991 0 0.996701 0.0811578 0 0.132887 0.991131 0 0.0642663 0.997933 0 0.0542681 0.998526 0 0.733436 0.679758 0 0.998091 0.0617678 0 0.367774 0.929915 0 0.926421 0.37649 0 0.752162 0.658979 0 0.620401 0.784285 0 0.0287347 0.999587 0 0.398565 0.91714 0 0.917726 0.397214 0 0.36546 0.930827 0 0.93045 0.366418 0 0.172522 0.985006 0 0.397819 0.917464 0 0.917559 0.397599 0 0.92748 0.373872 0 0.975762 0.218833 0 0.0564467 0.998406 0 0.244303 0.969699 0 0.938531 0.345194 0 0.950868 0.309596 0 0.309623 0.950859 0 0.0991784 0.99507 0 0.210563 0.97758 0 0.973262 0.229698 0 0.134306 0.99094 0 0.955206 0.295943 0 0.996826 0.079615 0 0.243146 0.96999 0 0.494542 0.869154 0 0.199095 0.97998 0 0.859139 0.511742 0 0.0150961 0.999886 0 0.441415 0.897303 0 0.363141 0.931734 0 0.997761 0.0668875 0 0.386176 0.922425 0 0.045062 0.998984 0 0.998127 0.0611823 0 0.995311 0.096727 0 0.225501 0.974243 0 0.161538 0.986867 0 0.969004 0.247046 0 0.284181 0.958771 0 0.0969323 0.995291 0 0.925078 0.379778 0 0.382469 0.923968 0 0.208848 0.977948 0 0.348129 0.937446 0 0.146795 0.989167 0 0.991286 0.131728 0 0.150396 0.988626 0 0.939163 0.343471 0 0.34329 0.93923 0 0.960327 0.278876 0 0.921618 0.388099 0 0.150083 0.988673 0 0.159141 0.987256 0 0.966583 0.256356 0 0.255568 0.966791 0 0.93024 0.366951 0 0.393204 0.919451 0 0.918942 0.394392 0 0.0546298 0.998507 0 0.559659 0.828723 0 0.861502 0.507754 0 0.278955 0.960304 0 0.65715 0.75376 0 0.9114 0.411521 0 0.95286 0.303409 0 0.0603397 0.998178 0 0.29687 0.954918 0 0.799272 0.600969 0 0.178388 0.98396 0 0.210149 0.977669 0 0.924761 0.380548 0 0.956888 0.290459 0 0.273469 0.961881 0 0.167005 0.985956 0 0.993472 0.114075 0 0.980115 0.198429 0 0.447377 0.894345 0 0.951346 0.308124 0 0.378214 0.925718 0 0.0445655 0.999006 0 0.0510713 0.998695 0 0.406574 0.913618 0 0.997215 0.0745868 0 0.984483 0.175483 0 0.333881 0.942615 0 0.999907 0.013653 0 0.191162 0.981559 0 0.942408 0.334464 0 0.196608 0.980482 0 0.113503 0.993538 0 0.99363 0.112688 0 0.157586 0.987505 0 0.999955 0.00953297 0 0.134872 0.990863 0 0.948339 0.31726 0 0.930418 0.3665 0 0.99929 0.0376873 0 0.976294 0.216449 0 0.986576 0.163301 0 0.0178 0.999842 0 0.964174 0.265272 0 0.192664 0.981265 0 0.365737 0.930718 0 0.989573 0.14403 0 0.285912 0.958256 0 0.292503 0.956264 0 0.922907 0.385023 0 0.342027 0.93969 0 0.115777 0.993275 0 0.888374 0.459121 0 0.808911 0.58793 0 0.449916 0.893071 0 0.957206 0.289407 0 0.989922 0.141611 0 0.3635 0.931594 0 0.654558 0.756012 0 0.274436 0.961605 0 0.32538 0.945583 0 0.975418 0.220363 0 0.918104 0.396339 0 0.270503 0.962719 0 0.102204 0.994763 0 0.400946 0.916102 0 0.942158 0.335169 0 0.987554 0.15728 0 0.19584 0.980636 0 0.0391131 0.999235 0 0.308884 0.9511 0 0.954141 0.299357 0 0.266453 0.963848 0 0.247068 0.968998 0 0.286824 0.957983 0 0.0804423 0.996759 0 0.93515 0.354253 0 0.308653 0.951175 0 0.350484 0.936569 0 0.936335 0.351107 0 0.966691 0.255945 0 0.959186 0.282777 0 0.185763 0.982595 0 0.693406 0.720547 0 0.698722 0.715393 0 0.372907 0.927869 0 0.195182 0.980767 0 0.135513 0.990776 0 0.999496 0.0317466 0 0.070581 0.997506 0 0.0961279 0.995369 0 0.159059 0.987269 0 0.990181 0.139792 0 0.159089 0.987264 0 0.364379 0.931251 0 0.098622 0.995125 0 0.17898 0.983853 0 0.401739 0.915754 0 0.91549 0.402341 0 0.12298 0.992409 0 0.930305 0.366787 0 0.998548 0.053866 0 0.990615 0.136678 0 0.999432 0.0336899 0 0.33132 0.943518 0 0.93858 0.34506 0 0.997473 0.0710448 0 0.119616 0.99282 0 0.110294 0.993899 0 0.0941445 0.995559 0 0.962654 0.270734 0 0.399285 0.916827 0 0.260353 0.965514 0 0.994585 0.103928 0 0.324759 0.945797 0 0.306648 0.951823 0 0.244339 0.96969 0 0.155333 0.987862 0 0.976987 0.213299 0 0.373225 0.927741 0 0.269087 0.963116 0 0.150743 0.988573 0 0.0420286 0.999116 0 0.129213 0.991617 0 0.946793 0.321843 0 0.0124203 0.999923 0 0.964833 0.262864 0 0.00966959 0.999953 0 0.200802 0.979632 0 0.511911 0.859038 0 0.649119 0.760687 0 0.346147 0.93818 0 0.94486 0.327475 0 0.922593 0.385776 0 0.920951 0.389679 0 0.255476 0.966815 0 0.939976 0.341241 0 0.352206 0.935922 0 0.987346 0.158579 0 0.235713 0.971823 0 0.149452 0.988769 0 0.0688262 0.997629 0 0.967289 0.253678 0 0.0472956 0.998881 0 0.999664 0.0259064 0 0.916531 0.399965 0 0.99997 0.00771552 0 0.999734 0.0230581 0 0.270165 0.962814 0 0.923427 0.383775 0 0.383514 0.923535 0 0.340218 0.940346 0 0.965323 0.261059 0 0.0339922 0.999422 0 0.108794 0.994064 0 0.95913 0.282967 0 0.993538 0.113499 0 0.976451 0.215739 0 0.720202 0.693765 0 0.629455 0.777037 0 0.224278 0.974525 0 0.995976 0.0896237 0 0.811283 0.584653 0 0.974648 0.223743 0 0.988951 0.148243 0 0.23113 0.972923 0 0.880952 0.473206 0 0.0685901 0.997645 0 0.297468 0.954732 0 0.106994 0.99426 0 0.318978 0.947762 0 0.219967 0.975507 0 0.483582 0.875299 0 0.539462 0.84201 0 0.92036 0.391073 0 0.994835 0.101508 0 0.0763623 0.99708 0 0.998383 0.0568454 0 0.0510298 0.998697 0 0.955915 0.293642 0 0.318525 0.947914 0 0.999585 0.0288052 0 0.298364 0.954452 0 0.991786 0.127909 0 0.326791 0.945097 0 0.738407 0.674356 0 0.366215 0.93053 0 0.0297659 0.999557 0 0.546135 0.837697 0 0.213101 0.97703 0 0.169922 0.985458 0 0.968169 0.250298 0 0.960245 0.279158 0 0.983062 0.183274 0 0.172927 0.984935 0 0.927333 0.374238 0 0.999887 0.0150065 0 0.996226 0.0867933 0 0.640652 0.767832 0 0.972882 0.231303 0 0.809381 0.587284 0 0.933118 0.35957 0 0.105245 0.994446 0 0.361372 0.932422 0 0.931391 0.364021 0 0.943732 0.330712 0 0.194743 0.980854 0 0.0935461 0.995615 0 0.274787 0.961505 0 0.773084 0.634303 0 0.946261 0.323405 0 0.390452 0.920623 0 0.232654 0.97256 0 0.972158 0.234327 0 0.259558 0.965728 0 0.0962332 0.995359 0 0.263964 0.964533 0 0.623272 0.782005 0 0.973862 0.227139 0 0.0127398 0.999919 0 0.0167332 0.99986 0 0.93187 0.362792 0 0.931737 0.363133 0 0.363322 0.931664 0 0.389768 0.920913 0 0.164434 0.986388 0 0.378784 0.925485 0 0.994885 0.101013 0 0.943972 0.330027 0 0.0589252 0.998262 0 0.999208 0.0397991 0 0.270572 0.9627 0 0.288557 0.957463 0 0.955661 0.294469 0 0.697182 0.716894 0 0.376071 0.926591 0 0.31917 0.947697 0 0.9997 0.0244831 0 0.980752 0.195259 0 0.998378 0.0569304 0 0.329891 0.944019 0 0.351417 0.936219 0 0.319746 0.947503 0 0.935007 0.354628 0 0.403507 0.914977 0 0.915122 0.403176 0 0.25324 0.967404 0 0.926048 0.377405 0 0.981428 0.191832 0 0.985846 0.167654 0 0.274337 0.961634 0 0.854701 0.519121 0 0.113296 0.993561 0 0