# vtk DataFile Version 3.0
Generated by GMDS VTK Writer

ASCII
DATASET UNSTRUCTURED_GRID
POINTS 333 float
0 0 0
0 2 0
0 4 0
5 1.5 0
5 2 0
4 2.5 0
4 1.5 0
5 2.5 0
1 4 0
1 0 0
0.292885 3.99779 0
0.583766 3.96512 0
0.869478 3.901 0
1.14961 3.81558 0
1.4247 3.71501 0
1.69597 3.60454 0
1.96501 3.48871 0
2.23279 3.37 0
2.5 3.25 0
2.76721 3.13 0
3.03499 3.01129 0
3.30403 2.89546 0
3.5753 2.78499 0
3.85039 2.68442 0
4.13052 2.599 0
4.41623 2.53488 0
4.70711 2.50221 0
0.292885 0.00220931 0
0.583766 0.0348828 0
0.869478 0.0990029 0
1.14961 0.184424 0
1.4247 0.284988 0
1.69597 0.39546 0
1.96501 0.51129 0
2.23279 0.630003 0
2.5 0.75 0
2.76721 0.869997 0
3.03499 0.98871 0
3.30403 1.10454 0
3.5753 1.21501 0
3.85039 1.31558 0
4.13052 1.401 0
4.41623 1.46512 0
4.70711 1.49779 0
-0.298085 3.97766 0
-0.58951 3.91115 0
-0.867767 3.80194 0
-1.12664 3.65248 0
-1.36035 3.4661 0
-1.56366 3.24698 0
-1.73205 3 0
-1.86175 2.73068 0
-1.94986 2.44504 0
-1.99441 2.14946 0
-1.99441 1.85054 0
-1.94986 1.55496 0
-1.86175 1.26932 0
-1.73205 1 0
-1.56366 0.75302 0
-1.36035 0.533896 0
-1.12664 0.347522 0
-0.867767 0.198062 0
-0.58951 0.0888544 0
-0.298085 0.0223383 0
5.25 1.56699 0
5.43301 1.75 0
5.5 2 0
5.43301 2.25 0
5.25 2.43301 0
0.0862974 2.04795 0
1.55289 2.01202 0
0.841925 1.24755 0
0.840446 2.76721 0
2.68574 2.03758 0
-0.936776 2 0
-0.432625 2.8711 0
-0.422493 1.12414 0
3.4757 2 0
1.63683 2.77816 0
1.64679 1.22726 0
0.273101 0.764641 0
0.273101 3.23536 0
0.864796 1.97751 0
-1.08982 2.67148 0
-1.08924 1.30502 0
2.31347 2.58917 0
2.32066 1.41832 0
0.323286 2.65317 0
0.284249 1.39676 0
4.07708 2 0
-0.392555 2.25982 0
-0.366168 1.69868 0
4.87797 2.0224 0
0.864538 0.679568 0
0.864538 3.32043 0
-0.27113 3.41469 0
-0.27113 0.585313 0
3.10191 2.388 0
3.09158 1.62763 0
-1.45641 2.26561 0
1.26953 1.59856 0
1.24445 2.37097 0
2.17116 2.0707 0
-0.855495 3.21967 0
-0.855495 0.780332 0
-1.43605 1.7175 0
1.37904 0.807092 0
1.37904 3.19291 0
1.93517 1.61638 0
0.657063 2.36333 0
2.07953 2.94086 0
2.06492 1.05262 0
1.85122 2.38052 0
2.75078 2.67517 0
2.75078 1.32483 0
0.503364 1.76956 0
-0.791603 1.60032 0
4.46343 2.12999 0
-0.799426 2.40402 0
3.7839 1.72614 0
3.78367 2.27509 0
0.00710039 1.07885 0
0.00332194 2.95234 0
0.143586 0.379807 0
0.143586 3.62019 0
1.73343 0.834142 0
1.73343 3.16586 0
0.495523 1.03365 0
0.476496 2.9346 0
-0.07005 2.52499 0
1.36396 2.80544 0
1.28357 1.19017 0
3.11556 2.00787 0
0.572384 3.55058 0
0.572384 0.449422 0
-1.47193 2.62994 0
-1.4775 1.33061 0
-1.20979 3.06473 0
-1.1732 0.916318 0
-0.610393 3.4716 0
-0.610393 0.528405 0
0.771405 1.57555 0
1.26323 2.00847 0
-0.0833427 1.48684 0
2.35667 1.77455 0
3.4479 1.55823 0
3.4479 2.44177 0
5.16625 1.96517 0
2.62614 2.29291 0
-0.698971 2.81161 0
-0.742295 1.1693 0
2.50522 2.88696 0
2.53483 1.13262 0
-1.71282 2.02546 0
-0.584401 1.97635 0
4.57015 1.80806 0
0.380954 2.22064 0
1.15571 0.472241 0
1.15571 3.52776 0
2.75009 1.66463 0
-0.215646 1.99979 0
1.01126 3.09824 0
1.01126 0.901764 0
-1.07487 1.7338 0
-0.593278 2.52484 0
-0.496524 3.19755 0
-0.496524 0.802447 0
1.60017 1.68828 0
5.07296 2.2327 0
0.159733 1.66718 0
0.555541 1.35413 0
0.942358 2.32983 0
-1.14126 2.23949 0
4.21121 1.71008 0
-0.584507 1.45695 0
4.235 2.26735 0
-1.25119 1.98093 0
0.590685 2.05872 0
2.0378 2.65999 0
3.03646 2.7086 0
3.04976 1.29449 0
1.56525 2.3044 0
-0.104231 0.286951 0
-0.104231 3.71305 0
-0.129971 2.28883 0
1.93633 1.29243 0
-0.0171167 0.803636 0
-0.0177464 3.20156 0
1.89475 1.9086 0
5.0304 1.75841 0
0.545356 3.25603 0
0.548527 0.738679 0
2.09432 2.36241 0
-1.13096 3.36435 0
-1.12486 0.632494 0
0.887776 3.63073 0
0.887776 0.369271 0
0.594363 2.62165 0
-1.7167 2.27458 0
2.46002 2.07124 0
3.777 2.0007 0
2.8806 2.17569 0
-1.64734 1.51137 0
1.46013 0.567659 0
1.46013 3.43234 0
4.69165 2.22545 0
3.3173 2.21164 0
3.31625 1.79156 0
1.02416 2.58055 0
1.99699 0.787126 0
2.00188 3.21778 0
-0.42413 0.300179 0
-0.42413 3.69982 0
-1.46627 2.96522 0
1.05457 1.76621 0
1.47848 2.57265 0
1.08986 1.42094 0
1.44211 1.4031 0
0.762758 3.02889 0
0.784197 0.963352 0
2.16936 1.62025 0
-1.46204 1.02279 0
1.52227 0.994983 0
1.53024 3.02098 0
-1.28194 1.48657 0
2.27836 3.08281 0
2.2645 0.923763 0
-1.26134 2.49221 0
0.262629 1.15811 0
0.261209 2.86836 0
-0.877114 3.5368 0
-0.876098 0.462672 0
-0.25681 3.09699 0
-0.247431 0.914844 0
-0.121663 1.73103 0
-0.986134 2.92308 0
-0.981697 1.07758 0
2.57667 1.50279 0
-1.70545 2.52927 0
3.29312 2.64377 0
3.29371 1.35998 0
0.392474 3.7418 0
0.392474 0.258196 0
4.33566 1.93692 0
1.71087 1.4514 0
3.93795 1.57703 0
1.38006 1.81655 0
3.68353 1.49394 0
3.6975 2.47007 0
3.96855 2.41035 0
-0.683539 2.22476 0
1.83563 2.15255 0
1.82525 1.0491 0
1.83071 2.91175 0
2.89087 1.85971 0
-0.170505 2.77199 0
0.158323 2.41439 0
-1.70037 1.76484 0
0.344207 1.95281 0
2.82313 2.8937 0
2.82695 1.11575 0
-0.174829 1.22464 0
3.55491 1.77068 0
3.55555 2.22801 0
2.24704 2.82562 0
2.25746 1.19021 0
0.317942 0.522639 0
0.317413 3.47648 0
2.84903 2.46823 0
-0.862424 1.37764 0
-0.86654 2.63643 0
0.686611 3.75478 0
0.686611 0.245224 0
0.018112 0.55125 0
0.0180135 3.44912 0
-0.625896 1.71105 0
5.26919 2.1612 0
0.726212 1.80332 0
0.0842643 2.69754 0
2.36772 2.33329 0
4.80391 1.76597 0
0.422798 2.45464 0
2.5536 2.56291 0
-0.677343 0.962398 0
-0.675846 3.03639 0
0.438198 1.54766 0
1.75182 3.37818 0
1.75152 0.622121 0
1.76368 2.59997 0
0.811678 2.53252 0
4.50269 2.33198 0
0.0759235 1.3354 0
0.788636 2.17109 0
2.89487 1.49502 0
-1.291 1.20201 0
5.27593 1.80811 0
-0.298164 2.54026 0
4.87988 2.31295 0
-0.802737 1.80963 0
-1.6465 2.79336 0
-1.29729 2.77574 0
2.10968 1.81378 0
4.63781 2.00915 0
-0.304044 1.47405 0
0.145124 0.17063 0
0.145124 3.82937 0
3.96826 2.1907 0
-1.34447 3.2334 0
-1.34115 0.758747 0
-1.01056 2.44208 0
1.13189 3.25967 0
1.13189 0.740334 0
3.96425 1.81084 0
1.34896 2.18266 0
-1.64763 1.21192 0
-0.672967 0.308086 0
-0.673112 3.69184 0
-1.48707 1.94026 0
1.06102 2.09985 0
-0.914312 2.26207 0
-1.02264 1.50277 0
2.60292 1.81278 0
1.05716 1.12828 0
1.06705 2.85431 0
1.23086 0.960437 0
1.2364 3.0245 0
1.56209 3.23959 0
1.55493 0.760979 0
0.204247 0.967778 0
0.199276 3.03844 0
2.1238 1.42752 0
4.41447 1.67192 0
1.2366 2.62187 0

CELLS 589 2356
3 228 170 88 
3 127 170 228 
3 184 69 256 
3 94 133 190 
3 93 191 134 
3 256 69 156 
3 90 154 160 
3 91 160 154 
3 115 285 141 
3 104 140 166 
3 103 165 139 
3 70 167 188 
3 108 188 167 
3 71 170 127 
3 94 195 133 
3 93 134 196 
3 99 135 238 
3 86 152 237 
3 114 237 152 
3 65 66 295 
3 87 197 128 
3 141 285 170 
3 115 258 169 
3 295 66 147 
3 95 139 165 
3 96 166 140 
3 115 141 277 
3 80 127 328 
3 81 329 128 
3 87 128 229 
3 131 217 216 
3 102 192 251 
3 71 141 170 
3 78 130 215 
3 97 201 132 
3 18 151 19 
3 35 36 152 
3 100 216 217 
3 255 75 296 
3 80 191 127 
3 81 128 190 
3 75 164 296 
3 72 128 197 
3 71 127 219 
3 72 218 128 
3 76 174 150 
3 78 223 130 
3 79 131 222 
3 75 149 164 
3 103 193 137 
3 104 138 194 
3 30 31 157 
3 13 158 14 
3 311 203 106 
3 310 107 204 
3 103 139 230 
3 104 231 140 
3 77 206 132 
3 77 132 207 
3 97 132 206 
3 98 207 132 
3 79 217 131 
3 98 132 254 
3 90 160 184 
3 224 105 202 
3 136 224 202 
3 53 54 153 
3 102 144 199 
3 181 288 215 
3 115 169 285 
3 90 184 296 
3 92 147 168 
3 88 169 291 
3 99 227 135 
3 143 291 169 
3 31 203 157 
3 14 158 204 
3 157 203 311 
3 158 310 204 
3 117 175 243 
3 95 212 139 
3 96 140 211 
3 112 288 181 
3 133 267 190 
3 134 191 266 
3 103 137 235 
3 104 236 138 
3 19 151 259 
3 36 260 152 
3 127 228 328 
3 128 329 229 
3 99 238 198 
3 3 64 189 
3 89 243 175 
3 112 251 192 
3 90 164 250 
3 118 250 164 
3 74 154 250 
3 132 201 254 
3 86 237 144 
3 70 313 142 
3 101 318 313 
3 69 169 258 
3 97 146 239 
3 98 240 145 
3 80 273 266 
3 81 267 274 
3 70 142 246 
3 101 171 318 
3 71 216 141 
3 76 303 174 
3 76 261 303 
3 109 156 177 
3 73 254 201 
3 64 295 189 
3 129 296 184 
3 113 259 151 
3 114 152 260 
3 105 163 176 
3 102 301 144 
3 74 176 163 
3 86 144 220 
3 178 253 288 
3 66 276 147 
3 74 250 319 
3 39 145 240 
3 22 239 146 
3 74 172 176 
3 53 153 198 
3 30 157 196 
3 13 195 158 
3 133 195 271 
3 134 272 196 
3 98 145 207 
3 97 206 146 
3 99 176 172 
3 69 160 234 
3 39 247 145 
3 22 146 248 
3 92 189 147 
3 73 148 199 
3 73 201 148 
3 81 274 187 
3 80 186 273 
3 92 168 297 
3 69 184 160 
3 85 282 151 
3 113 151 282 
3 150 174 269 
3 7 168 68 
3 24 175 25 
3 69 234 169 
3 99 198 153 
3 104 166 283 
3 103 284 165 
3 110 253 178 
3 41 42 173 
3 75 284 149 
3 76 150 283 
3 43 155 331 
3 144 321 199 
3 99 153 317 
3 149 270 164 
3 94 218 161 
3 93 162 219 
3 93 196 157 
3 94 158 195 
3 0 182 63 
3 2 44 183 
3 103 230 193 
3 104 194 231 
3 85 151 264 
3 86 265 152 
3 18 225 151 
3 35 152 226 
3 49 213 307 
3 116 269 174 
3 100 217 167 
3 98 254 159 
3 91 154 275 
3 81 190 267 
3 80 266 191 
3 56 314 202 
3 142 214 246 
3 20 179 21 
3 37 38 180 
3 77 262 200 
3 77 200 263 
3 25 175 290 
3 112 192 178 
3 85 178 192 
3 97 239 179 
3 98 180 240 
3 88 285 169 
3 69 258 156 
3 55 56 202 
3 95 165 232 
3 96 233 166 
3 92 297 205 
3 54 257 153 
3 102 251 188 
3 105 317 257 
3 90 250 154 
3 43 280 155 
3 118 164 270 
3 143 169 234 
3 92 302 280 
3 29 30 196 
3 12 195 13 
3 74 298 154 
3 78 288 253 
3 111 265 185 
3 49 50 213 
3 117 290 175 
3 40 245 247 
3 93 157 311 
3 94 310 158 
3 28 272 242 
3 11 241 271 
3 91 275 174 
3 116 174 275 
3 143 234 303 
3 3 189 280 
3 87 281 197 
3 122 232 255 
3 123 266 273 
3 124 274 267 
3 68 168 276 
3 71 219 322 
3 72 323 218 
3 137 300 235 
3 162 322 219 
3 161 218 323 
3 74 163 298 
3 116 298 163 
3 70 181 313 
3 144 237 321 
3 109 281 156 
3 98 159 293 
3 73 199 321 
3 3 280 43 
3 142 318 214 
3 34 226 209 
3 17 210 225 
3 63 182 211 
3 44 212 183 
3 95 183 212 
3 96 211 182 
3 104 283 236 
3 103 235 284 
3 70 246 167 
3 0 304 182 
3 2 183 305 
3 93 311 162 
3 94 161 310 
3 42 43 331 
3 121 261 233 
3 141 216 214 
3 100 214 216 
3 185 265 330 
3 119 200 262 
3 120 263 200 
3 150 236 283 
3 149 284 235 
3 155 302 243 
3 102 279 192 
3 96 186 233 
3 95 232 187 
3 153 257 317 
3 75 165 284 
3 76 283 166 
3 91 234 160 
3 117 243 302 
3 62 63 211 
3 44 45 212 
3 94 190 218 
3 93 219 191 
3 102 199 279 
3 105 224 163 
3 58 308 221 
3 137 307 213 
3 57 58 221 
3 148 268 282 
3 155 280 302 
3 122 187 232 
3 121 233 186 
3 156 258 177 
3 99 317 176 
3 136 202 314 
3 101 208 171 
3 142 313 318 
3 23 248 249 
3 99 172 227 
3 52 53 198 
3 150 269 236 
3 84 236 269 
3 20 259 179 
3 37 180 260 
3 149 235 270 
3 113 179 259 
3 114 260 180 
3 131 216 322 
3 83 270 235 
3 109 171 289 
3 100 246 214 
3 40 41 245 
3 105 257 202 
3 134 242 272 
3 133 271 241 
3 83 235 300 
3 130 332 215 
3 67 68 276 
3 70 251 181 
3 112 181 251 
3 111 209 226 
3 110 225 210 
3 82 177 277 
3 115 277 177 
3 47 48 193 
3 59 60 194 
3 123 182 304 
3 124 305 183 
3 66 67 276 
3 82 277 214 
3 141 214 277 
3 91 303 234 
3 97 179 268 
3 113 268 179 
3 208 332 323 
3 159 237 293 
3 114 293 237 
3 27 28 242 
3 10 241 11 
3 75 232 165 
3 76 166 233 
3 92 280 189 
3 113 282 268 
3 116 163 320 
3 126 253 210 
3 125 209 252 
3 110 210 253 
3 111 252 209 
3 108 301 188 
3 138 236 294 
3 85 264 178 
3 110 178 264 
3 75 255 232 
3 101 181 215 
3 167 217 244 
3 138 308 194 
3 137 193 307 
3 38 39 240 
3 21 239 22 
3 119 247 245 
3 23 249 24 
3 31 32 203 
3 14 204 15 
3 130 223 325 
3 131 324 222 
3 108 167 244 
3 82 214 318 
3 90 296 164 
3 34 35 226 
3 17 225 18 
3 42 331 173 
3 100 167 246 
3 74 319 172 
3 138 221 308 
3 22 248 23 
3 39 40 247 
3 33 34 209 
3 16 210 17 
3 89 173 243 
3 76 233 261 
3 79 252 185 
3 111 185 252 
3 41 173 245 
3 108 220 301 
3 129 184 256 
3 105 176 317 
3 89 312 173 
3 72 208 323 
3 79 222 252 
3 78 253 223 
3 125 252 222 
3 126 223 253 
3 84 294 236 
3 88 170 285 
3 159 321 237 
3 79 185 244 
3 108 244 185 
3 109 292 171 
3 123 273 182 
3 124 183 274 
3 128 218 190 
3 127 191 219 
3 156 281 256 
3 87 256 281 
3 147 276 168 
3 7 297 168 
3 21 179 239 
3 38 240 180 
3 95 274 183 
3 96 182 273 
3 91 174 303 
3 24 249 175 
3 120 249 248 
3 129 255 296 
3 7 26 297 
3 115 177 258 
3 78 215 288 
3 129 256 278 
3 171 208 289 
3 109 177 292 
3 119 262 247 
3 120 248 263 
3 145 247 262 
3 146 263 248 
3 98 293 180 
3 114 180 293 
3 82 292 177 
3 89 175 306 
3 148 201 268 
3 46 47 230 
3 60 61 231 
3 54 55 257 
3 32 287 203 
3 15 204 286 
3 108 185 330 
3 130 323 332 
3 112 178 288 
3 147 189 295 
3 47 193 230 
3 60 231 194 
3 126 210 286 
3 125 287 209 
3 16 286 210 
3 33 209 287 
3 71 322 216 
3 51 52 238 
3 55 202 257 
3 84 224 294 
3 85 279 282 
3 155 243 331 
3 136 294 224 
3 137 213 300 
3 101 313 181 
3 48 307 193 
3 59 194 308 
3 203 287 327 
3 204 326 286 
3 79 244 217 
3 52 198 238 
3 80 328 186 
3 81 187 329 
3 122 329 187 
3 121 186 328 
3 70 188 251 
3 96 273 186 
3 95 187 274 
3 134 266 242 
3 133 241 267 
3 123 242 266 
3 124 267 241 
3 87 278 256 
3 106 222 324 
3 107 325 223 
3 144 301 220 
3 118 309 319 
3 85 192 279 
3 148 282 279 
3 110 264 225 
3 111 226 265 
3 151 225 264 
3 152 265 226 
3 36 37 260 
3 19 259 20 
3 25 290 26 
3 11 271 12 
3 28 29 272 
3 12 271 195 
3 29 196 272 
3 172 319 309 
3 109 197 281 
3 83 300 227 
3 135 227 300 
3 143 303 261 
3 108 330 220 
3 89 306 200 
3 120 200 306 
3 15 286 16 
3 32 33 287 
3 77 263 206 
3 77 207 262 
3 146 206 263 
3 145 262 207 
3 159 254 321 
3 73 321 254 
3 102 188 301 
3 72 197 289 
3 50 51 299 
3 64 65 295 
3 0 27 304 
3 2 305 10 
3 48 49 307 
3 58 59 308 
3 138 294 221 
3 26 205 297 
3 56 57 314 
3 97 268 201 
3 61 62 315 
3 45 46 316 
3 89 200 312 
3 119 312 200 
3 92 205 302 
3 61 315 231 
3 46 230 316 
3 86 330 265 
3 109 289 197 
3 82 318 292 
3 171 292 318 
3 140 231 315 
3 139 316 230 
3 173 331 243 
3 87 229 278 
3 148 279 199 
3 122 278 229 
3 26 290 205 
3 117 302 205 
3 72 289 208 
3 101 215 332 
3 135 299 238 
3 51 238 299 
3 140 315 211 
3 139 212 316 
3 117 205 290 
3 62 211 315 
3 45 316 212 
3 121 291 261 
3 143 261 291 
3 88 291 228 
3 173 312 245 
3 129 278 255 
3 121 228 291 
3 122 255 278 
3 135 300 213 
3 135 213 299 
3 106 203 327 
3 107 326 204 
3 50 299 213 
3 118 319 250 
3 154 298 275 
3 136 314 221 
3 107 223 326 
3 106 327 222 
3 126 326 223 
3 125 222 327 
3 57 221 314 
3 136 221 294 
3 163 224 320 
3 84 320 224 
3 101 332 208 
3 172 309 227 
3 116 320 269 
3 125 327 287 
3 126 286 326 
3 83 227 309 
3 86 220 330 
3 175 249 306 
3 162 311 324 
3 161 325 310 
3 106 324 311 
3 107 310 325 
3 118 270 309 
3 10 305 241 
3 27 242 304 
3 124 241 305 
3 123 304 242 
3 121 328 228 
3 122 229 329 
3 120 306 249 
3 119 245 312 
3 116 275 298 
3 83 309 270 
3 84 269 320 
3 130 325 323 
3 131 322 324 
3 161 323 325 
3 162 324 322 

CELL_TYPES 589
5 
5 
5 
5 
5 
5 
5 
5 
5 
5 
5 
5 
5 
5 
5 
5 
5 
5 
5 
5 
5 
5 
5 
5 
5 
5 
5 
5 
5 
5 
5 
5 
5 
5 
5 
5 
5 
5 
5 
5 
5 
5 
5 
5 
5 
5 
5 
5 
5 
5 
5 
5 
5 
5 
5 
5 
5 
5 
5 
5 
5 
5 
5 
5 
5 
5 
5 
5 
5 
5 
5 
5 
5 
5 
5 
5 
5 
5 
5 
5 
5 
5 
5 
5 
5 
5 
5 
5 
5 
5 
5 
5 
5 
5 
5 
5 
5 
5 
5 
5 
5 
5 
5 
5 
5 
5 
5 
5 
5 
5 
5 
5 
5 
5 
5 
5 
5 
5 
5 
5 
5 
5 
5 
5 
5 
5 
5 
5 
5 
5 
5 
5 
5 
5 
5 
5 
5 
5 
5 
5 
5 
5 
5 
5 
5 
5 
5 
5 
5 
5 
5 
5 
5 
5 
5 
5 
5 
5 
5 
5 
5 
5 
5 
5 
5 
5 
5 
5 
5 
5 
5 
5 
5 
5 
5 
5 
5 
5 
5 
5 
5 
5 
5 
5 
5 
5 
5 
5 
5 
5 
5 
5 
5 
5 
5 
5 
5 
5 
5 
5 
5 
5 
5 
5 
5 
5 
5 
5 
5 
5 
5 
5 
5 
5 
5 
5 
5 
5 
5 
5 
5 
5 
5 
5 
5 
5 
5 
5 
5 
5 
5 
5 
5 
5 
5 
5 
5 
5 
5 
5 
5 
5 
5 
5 
5 
5 
5 
5 
5 
5 
5 
5 
5 
5 
5 
5 
5 
5 
5 
5 
5 
5 
5 
5 
5 
5 
5 
5 
5 
5 
5 
5 
5 
5 
5 
5 
5 
5 
5 
5 
5 
5 
5 
5 
5 
5 
5 
5 
5 
5 
5 
5 
5 
5 
5 
5 
5 
5 
5 
5 
5 
5 
5 
5 
5 
5 
5 
5 
5 
5 
5 
5 
5 
5 
5 
5 
5 
5 
5 
5 
5 
5 
5 
5 
5 
5 
5 
5 
5 
5 
5 
5 
5 
5 
5 
5 
5 
5 
5 
5 
5 
5 
5 
5 
5 
5 
5 
5 
5 
5 
5 
5 
5 
5 
5 
5 
5 
5 
5 
5 
5 
5 
5 
5 
5 
5 
5 
5 
5 
5 
5 
5 
5 
5 
5 
5 
5 
5 
5 
5 
5 
5 
5 
5 
5 
5 
5 
5 
5 
5 
5 
5 
5 
5 
5 
5 
5 
5 
5 
5 
5 
5 
5 
5 
5 
5 
5 
5 
5 
5 
5 
5 
5 
5 
5 
5 
5 
5 
5 
5 
5 
5 
5 
5 
5 
5 
5 
5 
5 
5 
5 
5 
5 
5 
5 
5 
5 
5 
5 
5 
5 
5 
5 
5 
5 
5 
5 
5 
5 
5 
5 
5 
5 
5 
5 
5 
5 
5 
5 
5 
5 
5 
5 
5 
5 
5 
5 
5 
5 
5 
5 
5 
5 
5 
5 
5 
5 
5 
5 
5 
5 
5 
5 
5 
5 
5 
5 
5 
5 
5 
5 
5 
5 
5 
5 
5 
5 
5 
5 
5 
5 
5 
5 
5 
5 
5 
5 
5 
5 
5 
5 
5 
5 
5 
5 
5 
5 
5 
5 
5 
5 
5 
5 
5 
5 
5 
5 
5 
5 
5 
5 
5 
5 
5 
5 
5 
5 
5 
5 
5 
5 
5 
5 
5 
5 
5 
5 
5 
5 
5 
5 
5 
5 
5 
5 
5 
5 
5 
5 
5 
5 
5 
5 
5 
5 
5 
5 
5 
5 
5 
5 
5 
5 
5 
5 
5 
5 
5 
5 
5 
5 
5 
5 
5 
5 
5 
5 
5 
5 
POINT_DATA 333
SCALARS GMDS_ID int 1
LOOKUP_TABLE default
0 1 2 3 4 5 6 7 8 9 10 11 12 13 14 15 16 17 18 19 20 21 22 23 24 25 26 27 28 29 30 31 32 33 34 35 36 37 38 39 40 41 42 43 44 45 46 47 48 49 50 51 52 53 54 55 56 57 58 59 60 61 62 63 64 65 66 67 68 69 70 71 72 73 74 75 76 77 78 79 80 81 82 83 84 85 86 87 88 89 90 91 92 93 94 95 96 97 98 99 100 101 102 103 104 105 106 107 108 109 110 111 112 113 114 115 116 117 118 119 120 121 122 123 124 125 126 127 128 129 130 131 132 133 134 135 136 137 138 139 140 141 142 143 144 145 146 147 148 149 150 151 152 153 154 155 156 157 158 159 160 161 162 163 164 165 166 167 168 169 170 171 172 173 174 175 176 177 178 179 180 181 182 183 184 185 186 187 188 189 190 191 192 193 194 195 196 197 198 199 200 201 202 203 204 205 206 207 208 209 210 211 212 213 214 215 216 217 218 219 220 221 222 223 224 225 226 227 228 229 230 231 232 233 234 235 236 237 238 239 240 241 242 243 244 245 246 247 248 249 250 251 252 253 254 255 256 257 258 259 260 261 262 263 264 265 266 267 268 269 270 271 272 273 274 275 276 277 278 279 280 281 282 283 284 285 286 287 288 289 290 291 292 293 294 295 296 297 298 299 300 301 302 303 304 305 306 307 308 309 310 311 312 313 314 315 316 317 318 319 320 321 322 323 324 325 326 327 328 329 330 331 332 
SCALARS angle float 1
LOOKUP_TABLE default
6.14867 0 0.134513 0.538685 0 0 0 5.7445 0 0 6.04438 5.61794 5.24971 4.99027 4.80877 4.69664 4.63552 4.60444 4.59484 4.60444 4.63552 4.69664 4.80877 4.99027 5.24971 5.61794 6.04438 0.238801 0.665243 1.03347 1.29291 1.47442 1.58654 1.64766 1.67874 1.68835 1.67874 1.64766 1.58654 1.47442 1.29291 1.03347 0.665243 0.238801 0.598399 1.1968 1.7952 2.39359 2.99199 3.59039 4.18879 4.78719 5.38559 5.98399 0.299199 0.897598 1.496 2.0944 2.69279 3.29119 3.88959 4.48799 5.08639 5.68479 2.0944 4.18879 6.28319 2.0944 4.18879 0.00190982 6.20616 1.12381 5.16813 5.68545 2.2379 4.23455 1.11696 6.25564 4.79558 1.49113 0.61928 5.67619 0.136094 3.79667 2.36102 4.71599 1.56834 5.51402 0.776966 0.153484 5.40609 1.10684 0.277339 1.11546 5.16971 0.521088 5.79672 4.9373 1.32715 5.08179 1.21228 5.12074 5.23751 2.75881 3.49565 1.17334 1.44227 4.84144 1.46572 5.49511 4.67797 1.60461 4.84345 4.70198 1.58341 0.575233 2.11455 0.0808294 3.82449 0.864875 5.4223 0.558756 5.80047 0.280108 6.0092 1.5629 4.72042 0.904196 5.39967 5.66325 4.88812 1.36123 6.14785 5.46942 0.816618 4.2701 1.88861 3.41844 2.87975 1.44123 4.86095 0.944765 6.2802 0.727113 1.41892 1.25886 5.00136 0.640468 4.85405 3.3622 2.75918 4.65603 1.62701 0.176846 1.89203 0.392242 5.85265 1.28104 5.00251 1.42935 0.245671 5.04976 1.23617 1.75418 3.85545 1.43091 4.95046 1.31238 0.382226 0.620859 0.934291 5.35707 4.38539 0.665201 2.04902 5.90677 0.757312 6.15591 4.72666 4.74578 1.53599 5.00546 6.17019 0.120057 5.84279 1.54877 0.298138 6.02369 1.06762 0.437432 5.41887 0.872026 4.79988 3.04944 3.23428 5.21089 1.07309 5.35145 5.34443 5.25846 0.0465833 5.11633 1.19903 1.49389 4.78938 0.0030518 5.28063 0.954091 5.11158 1.6139 4.66841 5.24696 1.04342 3.88213 0.884233 4.89556 1.20942 1.38251 5.20641 1.09598 1.50484 2.374 1.48307 4.79515 1.84816 4.63075 1.65018 4.20109 0.760277 5.55568 1.94692 4.34591 0.128178 0.0284273 0.641067 3.40685 2.80223 1.54163 4.70359 4.80168 1.47439 5.83463 0.450989 0.325789 1.46225 0.944674 0.992629 1.23089 5.08422 5.37097 3.78603 5.08573 1.55953 4.72751 1.03025 5.74192 5.68446 0.884418 0.178625 4.64809 1.634 0.635366 0.892403 5.36909 4.67447 1.60875 0.541235 5.74881 4.80236 2.37792 3.66766 5.33047 0.953434 0.182745 6.11577 1.88295 1.60688 0.609607 5.62821 4.79647 0.357515 5.54078 4.72342 3.37238 2.81409 0.787496 4.6909 1.59213 4.7965 5.25942 6.17249 0.712213 5.76137 1.48819 2.32516 3.90599 5.41544 6.27469 1.97423 4.18734 3.87516 1.37212 0.233553 1.00791 0.244462 6.04063 5.79188 3.33172 2.9566 3.94783 4.98627 1.29778 0.608865 5.34729 2.04152 5.00834 1.27954 0.566084 5.84838 3.91561 2.11764 1.32654 1.25792 5.02459 1.3598 4.92269 4.7602 1.52035 0.648272 5.6659 1.55192 0.575635 4.98536 
VECTORS cross_X float
0.033622 0.999435 0 1 0 0 0.999435 0.033622 0 0.990946 0.134265 0 1 0 0 1 0 0 1 0 0 0.134265 0.990946 0 1 0 0 1 0 0 0.0596648 0.998218 0 0.165545 0.986202 0 0.255503 0.966808 0 0.317629 0.948215 0 0.360314 0.932831 0 0.386318 0.922366 0 0.400365 0.916356 0 0.407473 0.913217 0 0.409665 0.912236 0 0.407473 0.913217 0 0.400365 0.916356 0 0.386318 0.922366 0 0.360314 0.932831 0 0.317629 0.948215 0 0.255503 0.966808 0 0.165545 0.986202 0 0.0596648 0.998218 0 0.998218 0.0596648 0 0.986202 0.165545 0 0.966808 0.255503 0 0.948215 0.317629 0 0.932831 0.360314 0 0.922366 0.386318 0 0.916356 0.400365 0 0.913217 0.407473 0 0.912236 0.409665 0 0.913217 0.407473 0 0.916356 0.400365 0 0.922366 0.386318 0 0.932831 0.360314 0 0.948215 0.317629 0 0.966808 0.255503 0 0.986202 0.165545 0 0.998218 0.0596648 0 0.988831 0.149042 0 0.955573 0.294755 0 0.900969 0.433884 0 0.826239 0.56332 0 0.733052 0.680173 0 0.62349 0.781831 0 0.5 0.866025 0 0.365341 0.930874 0 0.222521 0.974928 0 0.0747301 0.997204 0 0.997204 0.0747301 0 0.974928 0.222521 0 0.930874 0.365341 0 0.866025 0.5 0 0.781831 0.62349 0 0.680173 0.733052 0 0.56332 0.826239 0 0.433884 0.900969 0 0.294755 0.955573 0 0.149042 0.988831 0 0.866025 0.5 0 0.5 0.866025 0 5.13196e-12 1 0 0.866025 0.5 0 0.5 0.866025 0 1 0.000477454 0 0.0192552 0.999815 0 0.960792 0.277271 0 0.275167 0.961397 0 0.148879 0.988855 0 0.847534 0.530741 0 0.490061 0.871688 0 0.961265 0.275625 0 0.00688534 0.999976 0 0.363387 0.931638 0 0.931318 0.364207 0 0.988039 0.154202 0 0.151168 0.988508 0 0.999421 0.0340169 0 0.58236 0.812931 0 0.830799 0.556572 0 0.381851 0.924224 0 0.924114 0.382117 0 0.191108 0.981569 0 0.981194 0.193022 0 0.999264 0.0383616 0 0.21752 0.976056 0 0.96196 0.273191 0 0.997597 0.0692791 0 0.961369 0.275264 0 0.274789 0.961505 0 0.991527 0.129904 0 0.121317 0.992614 0 0.330158 0.943926 0 0.945462 0.325733 0 0.295853 0.955234 0 0.954425 0.298452 0 0.286538 0.958069 0 0.258452 0.966024 0 0.771435 0.636308 0 0.64183 0.766847 0 0.957285 0.289145 0 0.935697 0.352804 0 0.352682 0.935743 0 0.933612 0.358286 0 0.195747 0.980654 0 0.39062 0.920552 0 0.920612 0.39048 0 0.352212 0.93592 0 0.385085 0.922881 0 0.922668 0.385594 0 0.989677 0.143313 0 0.863495 0.504358 0 0.999796 0.020206 0 0.576691 0.816962 0 0.976716 0.214538 0 0.213563 0.976929 0 0.990259 0.139235 0 0.120386 0.992727 0 0.997549 0.0699697 0 0.0684435 0.997655 0 0.924633 0.380858 0 0.380827 0.924646 0 0.97456 0.224129 0 0.219087 0.975705 0 0.154363 0.988014 0 0.34174 0.939795 0 0.942652 0.333778 0 0.0338271 0.999428 0 0.202042 0.979377 0 0.979233 0.202739 0 0.482294 0.876009 0 0.890592 0.454804 0 0.656513 0.754314 0 0.751848 0.659337 0 0.935788 0.352563 0 0.348114 0.937452 0 0.972236 0.234001 0 0.000746963 1 0 0.983524 0.180779 0 0.937741 0.347336 0 0.950885 0.309544 0 0.315 0.949092 0 0.987209 0.159434 0 0.349731 0.93685 0 0.667052 0.745011 0 0.771377 0.636378 0 0.395663 0.918396 0 0.918411 0.395628 0 0.999023 0.0441972 0 0.890202 0.455565 0 0.995196 0.0979033 0 0.107426 0.994213 0 0.949154 0.314813 0 0.314726 0.949182 0 0.936831 0.349782 0 0.998115 0.0613791 0 0.303493 0.952834 0 0.952625 0.304146 0 0.90537 0.424623 0 0.570352 0.821401 0 0.936695 0.350146 0 0.327052 0.945006 0 0.946658 0.322239 0 0.995438 0.0954111 0 0.987978 0.154592 0 0.972846 0.231455 0 0.229466 0.973317 0 0.456847 0.889545 0 0.986204 0.165535 0 0.871641 0.490144 0 0.0939656 0.995575 0 0.982131 0.188199 0 0.0318145 0.999494 0 0.379385 0.925239 0 0.374958 0.927042 0 0.927174 0.37463 0 0.314026 0.949414 0 0.0282457 0.999601 0 0.99955 0.0300098 0 0.109876 0.993945 0 0.925973 0.377589 0 0.997224 0.0744654 0 0.0648291 0.997896 0 0.964592 0.263748 0 0.994026 0.10914 0 0.214401 0.976746 0 0.976331 0.216284 0 0.362385 0.932028 0 0.723208 0.69063 0 0.690534 0.7233 0 0.264874 0.964283 0 0.96423 0.265067 0 0.230834 0.972993 0 0.232541 0.972587 0 0.253388 0.967365 0 0.999932 0.0116456 0 0.287593 0.957753 0 0.955408 0.295288 0 0.931066 0.36485 0 0.364831 0.931074 0 1 0.00076295 0 0.248023 0.968754 0 0.971688 0.236267 0 0.288731 0.95741 0 0.919702 0.392617 0 0.392818 0.919616 0 0.256168 0.966632 0 0.96617 0.257906 0 0.564861 0.825186 0 0.975666 0.219262 0 0.33999 0.940429 0 0.954638 0.297768 0 0.940863 0.338787 0 0.265955 0.963985 0 0.962698 0.27058 0 0.930063 0.367399 0 0.828988 0.559267 0 0.932049 0.362331 0 0.363488 0.931599 0 0.895145 0.445775 0 0.401458 0.915877 0 0.916103 0.400943 0 0.497335 0.867558 0 0.981991 0.188927 0 0.180874 0.983506 0 0.883867 0.467738 0 0.465606 0.884992 0 0.999487 0.0320389 0 0.999975 0.00710677 0 0.987185 0.159582 0 0.658696 0.752409 0 0.764483 0.644644 0 0.926646 0.375936 0 0.384715 0.923035 0 0.361967 0.932191 0 0.932834 0.360307 0 0.111904 0.993719 0 0.993651 0.112509 0 0.996685 0.0813571 0 0.933923 0.357474 0 0.972242 0.233979 0 0.969367 0.245618 0 0.953026 0.302888 0 0.295272 0.955413 0 0.226083 0.974108 0 0.58452 0.811379 0 0.294913 0.955524 0 0.924954 0.38008 0 0.379188 0.92532 0 0.967014 0.254723 0 0.134904 0.990859 0 0.149123 0.988819 0 0.975656 0.219307 0 0.999003 0.0446413 0 0.397486 0.917608 0 0.917717 0.397234 0 0.987411 0.158174 0 0.975216 0.221255 0 0.22654 0.974002 0 0.391424 0.920211 0 0.920206 0.391433 0 0.99086 0.134896 0 0.133198 0.99109 0 0.361809 0.932252 0 0.82844 0.560078 0 0.608271 0.793729 0 0.235933 0.971769 0 0.971727 0.236108 0 0.998957 0.0456704 0 0.041841 0.999124 0 0.891234 0.453544 0 0.92039 0.391001 0 0.988409 0.151813 0 0.163014 0.986624 0 0.36318 0.931719 0 0.996008 0.0892597 0 0.184537 0.982826 0 0.380134 0.924932 0 0.665155 0.746705 0 0.762569 0.646907 0 0.980683 0.195605 0 0.387641 0.921811 0 0.921825 0.387606 0 0.363172 0.931722 0 0.253157 0.967425 0 0.027671 0.999617 0 0.98419 0.177114 0 0.130084 0.991503 0 0.931585 0.363525 0 0.835754 0.549103 0 0.559928 0.828541 0 0.215239 0.976561 0 0.00212307 0.999998 0 0.880652 0.473763 0 0.500315 0.865844 0 0.566296 0.824202 0 0.941739 0.336343 0 0.998296 0.0583551 0 0.968422 0.249318 0 0.998133 0.0610775 0 0.0606008 0.998162 0 0.122519 0.992466 0 0.67271 0.739906 0 0.739041 0.67366 0 0.551231 0.834353 0 0.318579 0.947896 0 0.947828 0.318783 0 0.988437 0.151629 0 0.231844 0.972753 0 0.872559 0.488508 0 0.313344 0.94964 0 0.949271 0.314458 0 0.990003 0.141049 0 0.108488 0.994098 0 0.557934 0.829886 0 0.863106 0.505023 0 0.945511 0.325589 0 0.950957 0.309322 0 0.309482 0.950905 0 0.942772 0.333439 0 0.333604 0.942713 0 0.371614 0.928388 0 0.928633 0.371001 0 0.986896 0.161359 0 0.153709 0.988116 0 0.925675 0.37832 0 0.989663 0.143413 0 0.318793 0.947824 0 
VECTORS VY float