# vtk DataFile Version 3.0
Generated by GMDS VTK Writer

ASCII
DATASET UNSTRUCTURED_GRID
POINTS 26 float
2.58661 4 1.41339
4 4 2
0 0 1.86207
4 2 2
2.58661 2 1.41339
2.20176 0 1.88544
2.21703 1.8984 4
4 0 1.86207
0 4 1.86207
0 1.88823 1.87806
2.2069 0 4
4 1.86207 4
2.2069 4 4
2 2 0
0 1.86207 4
0 4 4
0 4 0
0 0 4
2.2069 0 0
0 1.86207 0
4 4 4
2 4 0
4 0 0
4 0 4
0 0 0
4 2 0

CELLS 7 63
8 0 1 3 4 12 20 11 6 
8 0 4 9 8 12 6 14 15 
8 0 4 9 8 21 13 19 16 
8 2 5 4 9 17 10 6 14 
8 2 5 4 9 24 18 13 19 
8 3 4 5 7 11 6 10 23 
8 3 4 5 7 25 13 18 22 

CELL_TYPES 7
12 
12 
12 
12 
12 
12 
12 
POINT_DATA 26
SCALARS GMDS_ID int 1
LOOKUP_TABLE default
0 1 2 3 4 5 6 7 8 9 10 11 12 13 14 15 16 17 18 19 20 21 22 23 24 25 
SCALARS geom_link_id_1 int 1
LOOKUP_TABLE default
14 11 8 10 1 4 5 5 11 6 6 3 10 3 7 9 5 6 4 2 8 4 1 7 0 2 
SCALARS X int 1
LOOKUP_TABLE default
0 0 0 0 0 0 0 0 0 0 0 0 0 0 0 0 0 0 0 0 0 0 0 0 0 0 
SCALARS Y int 1
LOOKUP_TABLE default
0 0 0 0 0 0 0 0 0 0 0 0 0 0 0 0 0 0 0 0 0 0 0 0 0 0 
SCALARS Z int 1
LOOKUP_TABLE default
0 0 0 0 0 0 0 0 0 0 0 0 0 0 0 0 0 0 0 0 0 0 0 0 0 0 
SCALARS n_on_point int 1
LOOKUP_TABLE default
-1 11 -1 10 -1 -1 -1 -1 -1 -1 -1 -1 -1 3 -1 9 5 6 -1 -1 8 4 1 7 0 2 
SCALARS n_on_curve int 1
LOOKUP_TABLE default
14 -1 8 -1 1 -1 -1 5 11 -1 6 3 10 -1 7 -1 -1 -1 4 2 -1 -1 -1 -1 -1 -1 
SCALARS n_on_surface int 1
LOOKUP_TABLE default
-1 -1 -1 -1 -1 4 5 -1 -1 6 -1 -1 -1 -1 -1 -1 -1 -1 -1 -1 -1 -1 -1 -1 -1 -1 


CELL_DATA 7
SCALARS GMDS_ID int 1
LOOKUP_TABLE default
0 1 2 3 4 5 6 

SCALARS blocks int 1
LOOKUP_TABLE default
0 0 0 0 0 0 0 

