# vtk DataFile Version 3.0
Generated by GMDS VTK Writer

ASCII
DATASET UNSTRUCTURED_GRID
POINTS 249 float
0 0 1
0 0 0
0 1 1
0 1 0
1 0 1
1 0 0
1 1 1
1 1 0
0 0 0.2
0 0 0.4
0 0 0.6
0 0 0.8
0 0.2 1
0 0.4 1
0 0.6 1
0 0.8 1
0 1 0.2
0 1 0.4
0 1 0.6
0 1 0.8
0 0.2 0
0 0.4 0
0 0.6 0
0 0.8 0
1 0 0.2
1 0 0.4
1 0 0.6
1 0 0.8
1 0.2 1
1 0.4 1
1 0.6 1
1 0.8 1
1 1 0.2
1 1 0.4
1 1 0.6
1 1 0.8
1 0.2 0
1 0.4 0
1 0.6 0
1 0.8 0
0.2 0 0
0.4 0 0
0.6 0 0
0.8 0 0
0.2 0 1
0.4 0 1
0.6 0 1
0.8 0 1
0.2 1 0
0.4 1 0
0.6 1 0
0.8 1 0
0.2 1 1
0.4 1 1
0.6 1 1
0.8 1 1
0 0.5 0.5
0 0.2875 0.2875
0 0.7125 0.2875
0 0.2875 0.7125
0 0.7125 0.7125
0 0.796064 0.489674
0 0.203936 0.510326
0 0.510326 0.796064
0 0.489674 0.203936
0 0.842986 0.157014
0 0.164462 0.164462
0 0.157014 0.842986
0 0.835538 0.835538
0 0.569656 0.368343
0 0.368548 0.431034
0 0.431043 0.631482
0 0.616454 0.574162
0 0.310968 0.87031
0 0.13118 0.312458
0 0.308327 0.13118
0 0.87031 0.306838
0 0.691673 0.86882
0 0.689032 0.12969
0 0.86882 0.687542
0 0.12969 0.693162
1 0.493857 0.49683
1 0.69315 0.297863
1 0.2875 0.7125
1 0.29795 0.294902
1 0.7125 0.7125
1 0.793646 0.511621
1 0.496732 0.182438
1 0.204891 0.5
1 0.492356 0.798746
1 0.157014 0.842986
1 0.167083 0.167083
1 0.835538 0.835538
1 0.832917 0.167083
1 0.625585 0.448426
1 0.364624 0.442955
1 0.577109 0.608173
1 0.311007 0.869321
1 0.688079 0.869357
1 0.863943 0.315314
1 0.133985 0.312397
1 0.868337 0.691932
1 0.312353 0.128885
1 0.134492 0.679909
1 0.681604 0.132664
1 0.40339 0.593201
1 0.495317 0.360569
0.5 0 0.5
0.2875 0 0.2875
0.2875 0 0.7125
0.7125 0 0.2875
0.7125 0 0.7125
0.489674 0 0.796064
0.510326 0 0.203936
0.203936 0 0.489674
0.796064 0 0.510326
0.157014 0 0.842986
0.164462 0 0.164462
0.842986 0 0.157014
0.835538 0 0.835538
0.368343 0 0.569656
0.431034 0 0.368548
0.631482 0 0.431043
0.574162 0 0.616454
0.87031 0 0.310968
0.312458 0 0.13118
0.13118 0 0.308327
0.306838 0 0.87031
0.12969 0 0.689032
0.86882 0 0.691673
0.687542 0 0.86882
0.693162 0 0.12969
0.5 1 0.5
0.2875 1 0.2875
0.2875 1 0.7125
0.7125 1 0.2875
0.7125 1 0.7125
0.489674 1 0.796064
0.510326 1 0.203936
0.203936 1 0.489674
0.796064 1 0.510326
0.157014 1 0.842986
0.164462 1 0.164462
0.842986 1 0.157014
0.835538 1 0.835538
0.368343 1 0.569656
0.431034 1 0.368548
0.631482 1 0.431043
0.574162 1 0.616454
0.87031 1 0.310968
0.312458 1 0.13118
0.13118 1 0.308327
0.306838 1 0.87031
0.12969 1 0.689032
0.86882 1 0.691673
0.687542 1 0.86882
0.693162 1 0.12969
0.493857 0.49683 0
0.69315 0.297863 0
0.2875 0.7125 0
0.29795 0.294902 0
0.7125 0.7125 0
0.793646 0.511621 0
0.496732 0.182438 0
0.204891 0.5 0
0.492356 0.798746 0
0.157014 0.842986 0
0.167083 0.167083 0
0.832917 0.167083 0
0.835538 0.835538 0
0.625585 0.448426 0
0.364624 0.442955 0
0.577109 0.608173 0
0.311007 0.869321 0
0.688079 0.869357 0
0.863943 0.315314 0
0.133985 0.312397 0
0.868337 0.691932 0
0.312353 0.128885 0
0.134492 0.679909 0
0.681604 0.132664 0
0.40339 0.593201 0
0.495317 0.360569 0
0.493857 0.49683 1
0.69315 0.297863 1
0.2875 0.7125 1
0.29795 0.294902 1
0.7125 0.7125 1
0.793646 0.511621 1
0.496732 0.182438 1
0.204891 0.5 1
0.492356 0.798746 1
0.157014 0.842986 1
0.167083 0.167083 1
0.832917 0.167083 1
0.835538 0.835538 1
0.625585 0.448426 1
0.364624 0.442955 1
0.577109 0.608173 1
0.311007 0.869321 1
0.688079 0.869357 1
0.863943 0.315314 1
0.133985 0.312397 1
0.868337 0.691932 1
0.312353 0.128885 1
0.134492 0.679909 1
0.681604 0.132664 1
0.40339 0.593201 1
0.495317 0.360569 1
0.500048 0.5 0.500048
0.711188 0.407818 0.294121
0.707096 0.699544 0.391174
0.71036 0.399394 0.705258
0.446627 0.428186 0.251092
0.541564 0.250003 0.422687
0.42739 0.284445 0.703873
0.636896 0.700155 0.692963
0.307359 0.692641 0.345259
0.319533 0.684993 0.684993
0.277211 0.336704 0.454402
0.500399 0.509848 0.757509
0.479742 0.754337 0.510642
0.792334 0.416639 0.500121
0.630293 0.206512 0.213328
0.768415 0.209513 0.399241
0.225777 0.555704 0.515271
0.257711 0.456693 0.761106
0.400063 0.200502 0.245001
0.215338 0.370137 0.218962
0.523315 0.660496 0.23351
0.623848 0.205554 0.790863
0.790325 0.202481 0.625186
0.212547 0.214077 0.643054
0.619589 0.365084 0.546429
0.672307 0.549955 0.574852
0.794216 0.61701 0.199798
0.816619 0.58605 0.732084
0.298017 0.560784 0.180333
0.807443 0.807509 0.611504
0.35396 0.517043 0.385912
0.814246 0.275936 0.187849
0.20863 0.191497 0.323581
0.447525 0.338646 0.539527
0.497604 0.165867 0.581024
0.383069 0.810481 0.188506
0.68265 0.79916 0.201672
0.210668 0.769665 0.520629
0.813595 0.266553 0.812948
0.188745 0.745253 0.186567

CELLS 1203 5601
3 185 205 192 
3 94 81 96 
3 192 199 185 
3 141 134 152 
3 94 106 81 
3 153 134 141 
3 200 195 187 
3 68 77 60 
3 204 193 186 
3 191 185 199 
3 202 186 193 
3 79 68 60 
3 157 170 172 
3 182 170 157 
3 203 187 195 
3 155 136 144 
3 198 207 191 
3 137 152 134 
3 63 60 77 
3 207 185 191 
3 197 183 208 
3 198 188 196 
3 186 197 208 
3 185 190 205 
3 200 187 191 
3 204 186 189 
3 208 183 196 
3 182 171 160 
3 182 158 170 
3 197 207 183 
3 134 145 137 
3 196 188 184 
3 137 136 155 
3 145 148 137 
3 109 116 127 
3 69 56 70 
3 82 99 93 
3 92 85 98 
3 182 157 171 
3 208 196 184 
3 158 162 170 
3 189 186 208 
3 84 106 87 
3 86 82 94 
3 198 191 187 
3 135 149 140 
3 86 99 82 
3 67 59 73 
3 60 63 72 
3 82 106 94 
3 109 127 112 
3 196 183 198 
3 190 185 207 
3 147 132 146 
3 198 187 188 
3 138 147 146 
3 132 147 148 
3 105 95 88 
3 181 171 157 
3 137 148 136 
3 133 139 151 
3 106 95 81 
3 207 197 190 
3 180 163 42 
3 176 164 21 
3 114 120 121 
3 96 81 105 
3 148 145 132 
3 202 13 190 
3 118 110 124 
3 198 183 207 
3 45 204 189 
3 96 86 94 
3 72 63 71 
3 54 200 191 
3 140 147 135 
3 131 110 118 
3 146 132 145 
3 120 107 121 
3 139 133 146 
3 76 17 61 
3 61 58 76 
3 203 30 188 
3 172 170 162 
3 100 25 88 
3 140 149 33 
3 188 187 203 
3 152 137 53 
3 88 26 103 
3 182 160 163 
3 78 64 22 
3 89 97 29 
3 64 58 69 
3 107 122 121 
3 184 188 201 
3 42 113 131 
3 73 59 63 
3 14 63 77 
3 190 186 202 
3 63 13 73 
3 86 33 99 
3 186 190 197 
3 22 164 179 
3 160 176 167 
3 162 158 175 
3 114 10 128 
3 71 62 70 
3 189 206 46 
3 66 75 57 
3 138 135 147 
3 10 62 80 
3 146 145 139 
3 113 121 122 
3 156 138 50 
3 102 84 87 
3 89 30 98 
3 178 41 163 
3 92 101 85 
3 157 172 181 
3 78 58 64 
3 9 114 126 
3 115 25 124 
3 205 190 14 
3 144 136 154 
3 158 182 163 
3 37 102 87 
3 54 137 155 
3 163 160 178 
3 123 115 122 
3 95 84 88 
3 64 69 70 
3 67 80 59 
3 29 201 188 
3 129 111 119 
3 53 191 199 
3 93 104 82 
3 153 18 139 
3 18 79 61 
3 129 26 115 
3 72 71 56 
3 171 164 160 
3 97 89 83 
3 119 111 130 
3 50 165 174 
3 45 112 127 
3 148 147 140 
3 121 108 114 
3 128 116 109 
3 151 139 17 
3 61 69 58 
3 151 142 133 
3 169 161 177 
3 175 37 162 
3 143 149 135 
3 72 56 69 
3 38 87 104 
3 46 130 112 
3 88 83 105 
3 108 125 117 
3 113 122 110 
3 105 81 95 
3 208 184 189 
3 62 71 59 
3 161 165 172 
3 139 134 153 
3 150 133 142 
3 74 62 9 
3 125 113 41 
3 162 38 177 
3 57 64 70 
3 84 100 88 
3 71 63 59 
3 72 69 61 
3 180 158 163 
3 112 120 109 
3 111 115 123 
3 176 160 164 
3 87 106 82 
3 86 96 85 
3 181 172 165 
3 88 103 83 
3 159 181 165 
3 89 96 105 
3 136 148 140 
3 74 57 62 
3 174 165 161 
3 172 162 161 
3 61 79 60 
3 86 101 34 
3 184 206 189 
3 123 122 107 
3 134 139 145 
3 159 179 164 
3 205 15 192 
3 103 27 90 
3 173 165 49 
3 180 168 158 
3 57 70 62 
3 13 63 14 
3 190 13 14 
3 25 115 26 
3 88 25 26 
3 154 140 34 
3 35 144 154 
3 52 199 192 
3 34 33 86 
3 34 140 33 
3 29 188 30 
3 89 29 30 
3 39 104 93 
3 125 40 117 
3 151 16 142 
3 22 21 164 
3 21 22 64 
3 23 179 166 
3 44 193 204 
3 128 109 114 
3 150 142 48 
3 90 83 103 
3 206 194 47 
3 167 176 20 
3 175 168 36 
3 49 138 150 
3 180 43 168 
3 98 31 92 
3 28 194 201 
3 53 54 191 
3 53 137 54 
3 82 104 87 
3 116 128 11 
3 100 84 91 
3 74 8 66 
3 195 200 55 
3 166 173 48 
3 49 50 138 
3 49 165 50 
3 75 64 57 
3 51 174 169 
3 90 28 97 
3 100 91 24 
3 202 193 12 
3 115 124 110 
3 52 141 152 
3 67 11 80 
3 38 37 87 
3 37 38 162 
3 113 110 131 
3 184 194 206 
3 129 119 27 
3 68 15 77 
3 61 60 72 
3 130 111 112 
3 18 17 139 
3 17 18 61 
3 135 156 143 
3 79 19 68 
3 23 65 78 
3 167 40 178 
3 80 62 59 
3 65 16 76 
3 51 143 156 
3 36 91 102 
3 138 156 135 
3 66 57 74 
3 44 127 116 
3 118 43 131 
3 99 32 93 
3 35 101 92 
3 195 31 203 
3 112 123 120 
3 117 8 126 
3 111 123 112 
3 9 62 10 
3 114 9 10 
3 120 114 109 
3 169 177 39 
3 66 20 75 
3 5 36 168 
3 36 5 91 
3 129 115 111 
3 141 19 153 
3 73 12 67 
3 149 143 32 
3 118 124 24 
3 7 169 39 
3 93 7 39 
3 40 1 117 
3 1 40 167 
3 1 20 66 
3 20 1 167 
3 4 47 194 
3 47 4 119 
3 45 46 112 
3 45 189 46 
3 155 144 55 
3 42 41 113 
3 42 163 41 
3 6 92 31 
3 195 6 31 
3 55 144 6 
3 195 55 6 
3 35 6 144 
3 35 92 6 
3 47 119 130 
3 166 159 173 
3 8 117 1 
3 66 8 1 
3 108 113 125 
3 181 164 171 
3 165 173 159 
3 98 85 89 
3 114 108 126 
3 32 7 93 
3 32 143 7 
3 4 28 90 
3 4 194 28 
3 5 24 91 
3 24 5 118 
3 12 0 67 
3 0 12 193 
3 0 44 116 
3 0 193 44 
3 5 43 118 
3 5 168 43 
3 3 142 16 
3 65 3 16 
3 48 142 3 
3 166 48 3 
3 2 68 19 
3 141 2 19 
3 15 2 192 
3 2 15 68 
3 65 76 58 
3 181 159 164 
3 161 162 177 
3 143 51 7 
3 169 7 51 
3 90 27 4 
3 119 4 27 
3 117 126 108 
3 133 150 138 
3 86 85 101 
3 169 174 161 
3 141 52 2 
3 192 2 52 
3 3 65 23 
3 166 3 23 
3 110 122 115 
3 11 67 0 
3 116 11 0 
3 140 154 136 
3 133 138 146 
3 89 85 96 
3 102 91 84 
3 175 158 168 
3 90 97 83 
3 121 113 108 
3 120 123 107 
3 159 166 179 
3 194 184 201 
3 65 58 78 
3 177 38 39 
3 104 39 38 
3 14 77 15 
3 205 14 15 
3 129 27 26 
3 103 26 27 
3 131 43 42 
3 180 42 43 
3 154 34 35 
3 101 35 34 
3 45 44 204 
3 45 127 44 
3 52 53 199 
3 52 152 53 
3 17 76 16 
3 151 17 16 
3 20 176 21 
3 75 20 21 
3 175 36 37 
3 102 37 36 
3 28 201 29 
3 97 28 29 
3 46 47 130 
3 46 206 47 
3 30 203 31 
3 98 30 31 
3 23 22 179 
3 22 23 78 
3 51 50 174 
3 51 156 50 
3 41 178 40 
3 125 41 40 
3 49 48 173 
3 49 150 48 
3 8 9 126 
3 9 8 74 
3 13 12 73 
3 12 13 202 
3 25 24 124 
3 24 25 100 
3 11 128 10 
3 80 11 10 
3 33 149 32 
3 99 33 32 
3 54 55 200 
3 54 155 55 
3 19 79 18 
[...]
POINT_DATA 249
SCALARS GMDS_ID int 1
LOOKUP_TABLE default
0 1 2 3 4 5 6 7 8 9 10 11 12 13 14 15 16 17 18 19 20 21 22 23 24 25 26 27 28 29 30 31 32 33 34 35 36 37 38 39 40 41 42 43 44 45 46 47 48 49 50 51 52 53 54 55 56 57 58 59 60 61 62 63 64 65 66 67 68 69 70 71 72 73 74 75 76 77 78 79 80 81 82 83 84 85 86 87 88 89 90 91 92 93 94 95 96 97 98 99 100 101 102 103 104 105 106 107 108 109 110 111 112 113 114 115 116 117 118 119 120 121 122 123 124 125 126 127 128 129 130 131 132 133 134 135 136 137 138 139 140 141 142 143 144 145 146 147 148 149 150 151 152 153 154 155 156 157 158 159 160 161 162 163 164 165 166 167 168 169 170 171 172 173 174 175 176 177 178 179 180 181 182 183 184 185 186 187 188 189 190 191 192 193 194 195 196 197 198 199 200 201 202 203 204 205 206 207 208 209 210 211 212 213 214 215 216 217 218 219 220 221 222 223 224 225 226 227 228 229 230 231 232 233 234 235 236 237 238 239 240 241 242 243 244 245 246 247 248 
SCALARS BND_VERTEX_COLOR int 1
LOOKUP_TABLE default
1 2 3 4 5 6 7 8 0 0 0 0 0 0 0 0 0 0 0 0 0 0 0 0 0 0 0 0 0 0 0 0 0 0 0 0 0 0 0 0 0 0 0 0 0 0 0 0 0 0 0 0 0 0 0 0 0 0 0 0 0 0 0 0 0 0 0 0 0 0 0 0 0 0 0 0 0 0 0 0 0 0 0 0 0 0 0 0 0 0 0 0 0 0 0 0 0 0 0 0 0 0 0 0 0 0 0 0 0 0 0 0 0 0 0 0 0 0 0 0 0 0 0 0 0 0 0 0 0 0 0 0 0 0 0 0 0 0 0 0 0 0 0 0 0 0 0 0 0 0 0 0 0 0 0 0 0 0 0 0 0 0 0 0 0 0 0 0 0 0 0 0 0 0 0 0 0 0 0 0 0 0 0 0 0 0 0 0 0 0 0 0 0 0 0 0 0 0 0 0 0 0 0 0 0 0 0 0 0 0 0 0 0 0 0 0 0 0 0 0 0 0 0 0 0 0 0 0 0 0 0 0 0 0 0 0 0 0 0 0 0 0 0 0 0 0 0 0 0 
SCALARS BND_SURFACE_COLOR int 1
LOOKUP_TABLE default
0 0 0 0 0 0 0 0 0 0 0 0 0 0 0 0 0 0 0 0 0 0 0 0 0 0 0 0 0 0 0 0 0 0 0 0 0 0 0 0 0 0 0 0 0 0 0 0 0 0 0 0 0 0 0 0 4 4 4 4 4 4 4 4 4 4 4 4 4 4 4 4 4 4 4 4 4 4 4 4 4 2 2 2 2 2 2 2 2 2 2 2 2 2 2 2 2 2 2 2 2 2 2 2 2 2 2 6 6 6 6 6 6 6 6 6 6 6 6 6 6 6 6 6 6 6 6 6 6 6 6 6 3 3 3 3 3 3 3 3 3 3 3 3 3 3 3 3 3 3 3 3 3 3 3 3 3 5 5 5 5 5 5 5 5 5 5 5 5 5 5 5 5 5 5 5 5 5 5 5 5 5 5 1 1 1 1 1 1 1 1 1 1 1 1 1 1 1 1 1 1 1 1 1 1 1 1 1 1 0 0 0 0 0 0 0 0 0 0 0 0 0 0 0 0 0 0 0 0 0 0 0 0 0 0 0 0 0 0 0 0 0 0 0 0 0 0 0 0 
SCALARS BND_CURVE_COLOR int 1
LOOKUP_TABLE default
0 0 0 0 0 0 0 0 10 10 10 10 1 1 1 1 9 9 9 9 5 5 5 5 2 2 2 2 4 4 4 4 3 3 3 3 8 8 8 8 11 11 11 11 12 12 12 12 7 7 7 7 6 6 6 6 0 0 0 0 0 0 0 0 0 0 0 0 0 0 0 0 0 0 0 0 0 0 0 0 0 0 0 0 0 0 0 0 0 0 0 0 0 0 0 0 0 0 0 0 0 0 0 0 0 0 0 0 0 0 0 0 0 0 0 0 0 0 0 0 0 0 0 0 0 0 0 0 0 0 0 0 0 0 0 0 0 0 0 0 0 0 0 0 0 0 0 0 0 0 0 0 0 0 0 0 0 0 0 0 0 0 0 0 0 0 0 0 0 0 0 0 0 0 0 0 0 0 0 0 0 0 0 0 0 0 0 0 0 0 0 0 0 0 0 0 0 0 0 0 0 0 0 0 0 0 0 0 0 0 0 0 0 0 0 0 0 0 0 0 0 0 0 0 0 0 0 0 0 0 0 0 0 0 0 0 0 0 0 0 0 0 0 0 0 0 0 0 0 
SCALARS Ordering int 1
LOOKUP_TABLE default
153 154 155 156 157 158 159 160 161 162 163 164 165 166 167 168 169 170 171 172 173 174 175 176 177 178 179 180 181 182 183 184 185 186 187 188 189 190 191 192 193 194 195 196 197 198 199 200 201 202 203 204 205 206 207 208 0 1 2 3 4 5 6 7 8 9 10 11 12 13 14 15 16 17 18 19 20 21 22 23 24 25 26 27 28 29 30 31 32 33 34 35 36 37 38 39 40 41 42 43 44 45 46 47 48 49 50 51 52 53 54 55 56 57 58 59 60 61 62 63 64 65 66 67 68 69 70 71 72 73 74 75 76 77 78 79 80 81 82 83 84 85 86 87 88 89 90 91 92 93 94 95 96 97 98 99 100 101 102 103 104 105 106 107 108 109 110 111 112 113 114 115 116 117 118 119 120 121 122 123 124 125 126 127 128 129 130 131 132 133 134 135 136 137 138 139 140 141 142 143 144 145 146 147 148 149 150 151 152 209 210 211 212 213 214 215 216 217 218 219 220 221 222 223 224 225 226 227 228 229 230 231 232 233 234 235 236 237 238 239 240 241 242 243 244 245 246 247 248 
VECTORS FF_X_POS float
-2.22045e-16 1 0 1 7.40149e-17 -7.40149e-17 0 0 -1 -2.22045e-16 3.08149e-33 1 1 5.23364e-17 5.23364e-17 0 1 0 -2.22045e-16 -1 3.08149e-33 0 -1 0 0 0 1 0 0 -1 0 0 1 0 0 -1 0 1 0 0 -1 0 0 1 0 0 -1 0 0 0 1 0 0 -1 0 0 1 0 0 -1 0 1 0 0 -1 0 0 1 0 0 -1 0 0 0 1 0 0 -1 0 0 1 0 0 -1 0 1 0 0 -1 0 0 1 0 0 -1 0 0 0 1 0 0 -1 0 0 1 0 0 -1 0 1 0 0 -1 0 0 1 0 0 -1 0 1 0 0 -1 0 0 1 0 0 -1 0 0 1 0 0 -1 0 0 1 0 0 -1 0 0 1 0 0 -1 0 0 1 0 0 -1 0 0 1 0 0 -1 0 0 1 0 0 -1 0 0 1 0 0 1 0 0 1 0 0 1 0 0 1 0 0 1 0 0 1 0 0 1 0 0 1 0 0 1 0 0 1 0 0 1 0 0 1 0 0 1 0 0 1 0 0 1 0 0 1 0 0 1 0 0 1 0 0 1 0 0 1 0 0 1 0 0 1 0 0 1 0 0 1 0 0 1 0 0 1 0 0 1 0 0 1 0 0 1 0 0 1 0 0 1 0 0 1 0 0 1 0 0 1 0 0 1 0 0 1 0 0 1 0 0 1 0 0 1 0 0 1 0 0 1 0 0 1 0 0 1 0 0 1 0 0 1 0 0 1 0 0 1 0 0 1 0 0 1 0 0 1 0 0 1 0 0 1 0 0 1 0 0 1 0 0 1 0 0 1 0 0 1 0 0 1 0 0 1 0 0 1 0 0 1 0 0 1 0 0 1 0 0 1 0 0 1 0 0 1 0 0 1 0 0 1 0 0 1 0 0 1 0 0 1 0 0 1 0 0 1 0 0 1 0 0 1 0 0 1 0 0 1 0 0 1 0 0 1 0 0 1 0 0 1 0 0 1 0 0 1 0 0 1 0 0 1 0 0 1 0 0 1 0 0 1 0 0 1 0 0 1 0 0 1 0 0 1 0 0 1 0 0 1 0 0 1 0 0 1 0 0 1 0 0 1 0 0 1 0 0 1 0 0 1 0 0 1 0 0 1 0 0 1 0 0 1 0 0 1 0 0 1 0 0 1 0 0 1 0 0 1 0 0 1 0 0 1 0 0 1 0 0 1 0 0 1 0 0 1 0 0 1 0 0 1 0 0 1 0 0 1 0 0 1 0 0 1 0 0 1 0 0 1 0 0 1 0 0 1 0 0 1 0 0 1 0 0 1 0 0 1 0 0 1 0 0 1 0 0 1 0 0 1 0 0 1 0 0 1 0 0 1 0 0 1 0 0 1 0 0 1 0 0 1 0 0 1 0 0 1 0 0 1 0 0 1 0 0 1 0 0 1 0 0 1 0 0 1 0 0 1 0 0 1 0 0 1 0 0 1 0 0 1 0 0 1 0 0 1 0 0 1 0 0 1 0 0 1 0 0 1 0 0 1 0 0 1 0 0 1 0 0 1 0 0 1 0 0 1 0 0 1 0 0 1 0 0 1 0 0 1 0 0 1 0 0 1 0 0 1 0 0 1 0 0 1 0 0 1 0 0 1 0 0 1 0 0 1 0 0 1 0 0 1 0 0 1 0 0 1 0 0 1 0 0 1 0 0 1 0 0 1 0 0 1 0 0 1 0 0 1 0 0 1 0 0 1 0 0 
VECTORS FF_X_NEG float
2.22045e-16 -1 -0 -1 -7.40149e-17 7.40149e-17 -0 -0 1 2.22045e-16 -3.08149e-33 -1 -1 -5.23364e-17 -5.23364e-17 -0 -1 -0 2.22045e-16 1 -3.08149e-33 -0 1 -0 -0 -0 -1 -0 -0 1 -0 -0 -1 -0 -0 1 -0 -1 -0 -0 1 -0 -0 -1 -0 -0 1 -0 -0 -0 -1 -0 -0 1 -0 -0 -1 -0 -0 1 -0 -1 -0 -0 1 -0 -0 -1 -0 -0 1 -0 -0 -0 -1 -0 -0 1 -0 -0 -1 -0 -0 1 -0 -1 -0 -0 1 -0 -0 -1 -0 -0 1 -0 -0 -0 -1 -0 -0 1 -0 -0 -1 -0 -0 1 -0 -1 -0 -0 1 -0 -0 -1 -0 -0 1 -0 -1 -0 -0 1 -0 -0 -1 -0 -0 1 -0 -0 -1 -0 -0 1 -0 -0 -1 -0 -0 1 -0 -0 -1 -0 -0 1 -0 -0 -1 -0 -0 1 -0 -0 -1 -0 -0 1 -0 -0 -1 -0 -0 1 -0 -0 -1 -0 -0 -1 -0 -0 -1 -0 -0 -1 -0 -0 -1 -0 -0 -1 -0 -0 -1 -0 -0 -1 -0 -0 -1 -0 -0 -1 -0 -0 -1 -0 -0 -1 -0 -0 -1 -0 -0 -1 -0 -0 -1 -0 -0 -1 -0 -0 -1 -0 -0 -1 -0 -0 -1 -0 -0 -1 -0 -0 -1 -0 -0 -1 -0 -0 -1 -0 -0 -1 -0 -0 -1 -0 -0 -1 -0 -0 -1 -0 -0 -1 -0 -0 -1 -0 -0 -1 -0 -0 -1 -0 -0 -1 -0 -0 -1 -0 -0 -1 -0 -0 -1 -0 -0 -1 -0 -0 -1 -0 -0 -1 -0 -0 -1 -0 -0 -1 -0 -0 -1 -0 -0 -1 -0 -0 -1 -0 -0 -1 -0 -0 -1 -0 -0 -1 -0 -0 -1 -0 -0 -1 -0 -0 -1 -0 -0 -1 -0 -0 -1 -0 -0 -1 -0 -0 -1 -0 -0 -1 -0 -0 -1 -0 -0 -1 -0 -0 -1 -0 -0 -1 -0 -0 -1 -0 -0 -1 -0 -0 -1 -0 -0 -1 -0 -0 -1 -0 -0 -1 -0 -0 -1 -0 -0 -1 -0 -0 -1 -0 -0 -1 -0 -0 -1 -0 -0 -1 -0 -0 -1 -0 -0 -1 -0 -0 -1 -0 -0 -1 -0 -0 -1 -0 -0 -1 -0 -0 -1 -0 -0 -1 -0 -0 -1 -0 -0 -1 -0 -0 -1 -0 -0 -1 -0 -0 -1 -0 -0 -1 -0 -0 -1 -0 -0 -1 -0 -0 -1 -0 -0 -1 -0 -0 -1 -0 -0 -1 -0 -0 -1 -0 -0 -1 -0 -0 -1 -0 -0 -1 -0 -0 -1 -0 -0 -1 -0 -0 -1 -0 -0 -1 -0 -0 -1 -0 -0 -1 -0 -0 -1 -0 -0 -1 -0 -0 -1 -0 -0 -1 -0 -0 -1 -0 -0 -1 -0 -0 -1 -0 -0 -1 -0 -0 -1 -0 -0 -1 -0 -0 -1 -0 -0 -1 -0 -0 -1 -0 -0 -1 -0 -0 -1 -0 -0 -1 -0 -0 -1 -0 -0 -1 -0 -0 -1 -0 -0 -1 -0 -0 -1 -0 -0 -1 -0 -0 -1 -0 -0 -1 -0 -0 -1 -0 -0 -1 -0 -0 -1 -0 -0 -1 -0 -0 -1 -0 -0 -1 -0 -0 -1 -0 -0 -1 -0 -0 -1 -0 -0 -1 -0 -0 -1 -0 -0 -1 -0 -0 -1 -0 -0 -1 -0 -0 -1 -0 -0 -1 -0 -0 -1 -0 -0 -1 -0 -0 -1 -0 -0 -1 -0 -0 -1 -0 -0 -1 -0 -0 -1 -0 -0 -1 -0 -0 -1 -0 -0 -1 -0 -0 -1 -0 -0 -1 -0 -0 -1 -0 -0 -1 -0 -0 -1 -0 -0 -1 -0 -0 -1 -0 -0 -1 -0 -0 -1 -0 -0 -1 -0 -0 -1 -0 -0 -1 -0 -0 -1 -0 -0 -1 -0 -0 -1 -0 -0 -1 -0 -0 -1 -0 -0 -1 -0 -0 -1 -0 -0 -1 -0 -0 -1 -0 -0 -1 -0 -0 -1 -0 -0 -1 -0 -0 -1 -0 -0 -1 -0 -0 -1 -0 -0 -1 -0 -0 -1 -0 -0 -1 -0 -0 -1 -0 -0 -1 -0 -0 -1 -0 -0 -1 -0 -0 -1 -0 -0 -1 -0 -0 -1 -0 -0 -1 -0 -0 -1 -0 -0 -1 -0 -0 -1 -0 -0 -1 -0 -0 -1 -0 -0 
VECTORS FF_Y_POS float
-1 -2.22045e-16 0 7.40149e-17 -1 -2.7391e-33 -1 0 0 5.23364e-17 1 3.08149e-33 -5.23364e-17 -1.36955e-33 1 0 0 -1 1 -2.22045e-16 -5.23364e-17 0 0 -1 0 -1 0 -1 0 0 -1 0 0 -1 0 0 -1 0 0 -1 0 0 -1 0 0 0 0 1 0 1 0 0 1 0 0 1 0 -1 0 0 -1 0 0 0 0 -1 0 0 -1 -1 0 0 1 0 0 0 -1 0 0 -1 0 0 -1 0 1 -0 0 0 0 1 0 0 1 1 0 0 1 0 0 1 0 0 1 0 0 0 1 0 0 0 -1 1 0 0 1 0 0 0 0 -1 0 -1 0 0 -1 0 0 -1 0 0 -1 0 0 -1 0 0 -1 0 0 -1 0 0 0 1 0 1 0 0 1 0 0 1 0 0 0 -1 0 0 1 0 0 1 -0 0 1 0 1 0 0 1 0 0 1 0 0 1 0 0 1 0 0 1 0 0 1 0 0 1 0 0 1 0 0 1 0 0 1 0 0 1 0 0 1 0 0 1 0 0 1 0 0 1 0 0 1 0 0 1 0 0 1 0 0 1 0 0 1 0 0 1 0 0 1 0 0 1 0 0 1 0 0 1 0 0 1 0 0 1 0 0 1 0 0 1 0 0 1 0 0 1 0 0 1 0 0 1 0 0 1 0 0 1 0 0 1 0 0 1 0 0 1 0 0 1 0 0 1 0 0 1 0 0 1 0 0 1 0 0 1 0 0 1 0 0 1 0 0 1 0 0 1 0 0 1 0 0 1 0 0 1 0 0 1 0 0 1 0 0 1 0 0 1 0 0 1 0 0 1 0 0 1 0 0 1 0 0 1 0 0 1 0 0 1 0 0 1 0 0 1 0 0 1 0 0 1 0 0 1 0 0 1 0 0 1 0 0 1 0 0 1 0 0 1 0 0 1 0 0 1 0 0 1 0 0 1 0 0 1 0 0 1 0 0 1 0 0 1 0 0 1 0 0 1 0 0 1 0 0 1 0 0 1 0 0 1 0 0 1 0 0 1 0 0 1 0 0 1 0 0 1 0 0 1 0 0 1 0 0 1 0 0 1 0 0 1 0 0 1 0 0 1 0 0 1 0 0 1 0 0 1 0 0 1 0 0 1 0 0 1 0 0 1 0 0 1 0 0 1 0 0 1 0 0 1 0 0 1 0 0 1 0 0 1 0 0 1 0 0 1 0 0 1 0 0 1 0 0 1 0 0 1 0 0 1 0 0 1 0 0 1 0 0 1 0 0 1 0 0 1 0 0 1 0 0 1 0 0 1 0 0 1 0 0 1 0 0 1 0 0 1 0 0 1 0 0 1 0 0 1 0 0 1 0 0 1 0 0 1 0 0 1 0 0 1 0 0 1 0 0 1 0 0 1 0 0 1 0 0 1 0 0 1 0 0 1 0 0 1 0 0 1 0 0 1 0 0 1 0 0 1 0 0 1 0 0 1 0 0 1 0 0 1 0 0 1 0 0 1 0 0 1 0 0 1 0 0 1 0 0 1 0 0 1 0 0 1 0 0 1 0 0 1 0 0 1 0 0 1 0 0 1 0 0 1 0 0 1 0 0 1 0 0 1 0 0 1 0 0 1 0 0 1 0 0 1 0 0 1 0 0 1 0 0 1 0 0 1 0 0 1 0 0 1 0 0 1 0 0 1 0 0 1 0 0 1 0 0 1 0 0 1 0 0 1 0 0 1 0 0 1 0 0 1 0 0 1 0 
VECTORS FF_Y_NEG float
1 2.22045e-16 -0 -7.40149e-17 1 2.7391e-33 1 -0 -0 -5.23364e-17 -1 -3.08149e-33 5.23364e-17 1.36955e-33 -1 -0 -0 1 -1 2.22045e-16 5.23364e-17 -0 -0 1 -0 1 -0 1 -0 -0 1 -0 -0 1 -0 -0 1 -0 -0 1 -0 -0 1 -0 -0 -0 -0 -1 -0 -1 -0 -0 -1 -0 -0 -1 -0 1 -0 -0 1 -0 -0 -0 -0 1 -0 -0 1 1 -0 -0 -1 -0 -0 -0 1 -0 -0 1 -0 -0 1 -0 -1 0 -0 -0 -0 -1 -0 -0 -1 -1 -0 -0 -1 -0 -0 -1 -0 -0 -1 -0 -0 -0 -1 -0 -0 -0 1 -1 -0 -0 -1 -0 -0 -0 -0 1 -0 1 -0 -0 1 -0 -0 1 -0 -0 1 -0 -0 1 -0 -0 1 -0 -0 1 -0 -0 -0 -1 -0 -1 -0 -0 -1 -0 -0 -1 -0 -0 -0 1 -0 -0 -1 -0 -0 -1 0 -0 -1 -0 -1 -0 -0 -1 -0 -0 -1 -0 -0 -1 -0 -0 -1 -0 -0 -1 -0 -0 -1 -0 -0 -1 -0 -0 -1 -0 -0 -1 -0 -0 -1 -0 -0 -1 -0 -0 -1 -0 -0 -1 -0 -0 -1 -0 -0 -1 -0 -0 -1 -0 -0 -1 -0 -0 -1 -0 -0 -1 -0 -0 -1 -0 -0 -1 -0 -0 -1 -0 -0 -1 -0 -0 -1 -0 -0 -1 -0 -0 -1 -0 -0 -1 -0 -0 -1 -0 -0 -1 -0 -0 -1 -0 -0 -1 -0 -0 -1 -0 -0 -1 -0 -0 -1 -0 -0 -1 -0 -0 -1 -0 -0 -1 -0 -0 -1 -0 -0 -1 -0 -0 -1 -0 -0 -1 -0 -0 -1 -0 -0 -1 -0 -0 -1 -0 -0 -1 -0 -0 -1 -0 -0 -1 -0 -0 -1 -0 -0 -1 -0 -0 -1 -0 -0 -1 -0 -0 -1 -0 -0 -1 -0 -0 -1 -0 -0 -1 -0 -0 -1 -0 -0 -1 -0 -0 -1 -0 -0 -1 -0 -0 -1 -0 -0 -1 -0 -0 -1 -0 -0 -1 -0 -0 -1 -0 -0 -1 -0 -0 -1 -0 -0 -1 -0 -0 -1 -0 -0 -1 -0 -0 -1 -0 -0 -1 -0 -0 -1 -0 -0 -1 -0 -0 -1 -0 -0 -1 -0 -0 -1 -0 -0 -1 -0 -0 -1 -0 -0 -1 -0 -0 -1 -0 -0 -1 -0 -0 -1 -0 -0 -1 -0 -0 -1 -0 -0 -1 -0 -0 -1 -0 -0 -1 -0 -0 -1 -0 -0 -1 -0 -0 -1 -0 -0 -1 -0 -0 -1 -0 -0 -1 -0 -0 -1 -0 -0 -1 -0 -0 -1 -0 -0 -1 -0 -0 -1 -0 -0 -1 -0 -0 -1 -0 -0 -1 -0 -0 -1 -0 -0 -1 -0 -0 -1 -0 -0 -1 -0 -0 -1 -0 -0 -1 -0 -0 -1 -0 -0 -1 -0 -0 -1 -0 -0 -1 -0 -0 -1 -0 -0 -1 -0 -0 -1 -0 -0 -1 -0 -0 -1 -0 -0 -1 -0 -0 -1 -0 -0 -1 -0 -0 -1 -0 -0 -1 -0 -0 -1 -0 -0 -1 -0 -0 -1 -0 -0 -1 -0 -0 -1 -0 -0 -1 -0 -0 -1 -0 -0 -1 -0 -0 -1 -0 -0 -1 -0 -0 -1 -0 -0 -1 -0 -0 -1 -0 -0 -1 -0 -0 -1 -0 -0 -1 -0 -0 -1 -0 -0 -1 -0 -0 -1 -0 -0 -1 -0 -0 -1 -0 -0 -1 -0 -0 -1 -0 -0 -1 -0 -0 -1 -0 -0 -1 -0 -0 -1 -0 -0 -1 -0 -0 -1 -0 -0 -1 -0 -0 -1 -0 -0 -1 -0 -0 -1 -0 -0 -1 -0 -0 -1 -0 -0 -1 -0 -0 -1 -0 -0 -1 -0 -0 -1 -0 -0 -1 -0 -0 -1 -0 -0 -1 -0 -0 -1 -0 -0 -1 -0 -0 -1 -0 -0 -1 -0 -0 -1 -0 -0 -1 -0 -0 -1 -0 -0 -1 -0 -0 -1 -0 -0 -1 -0 -0 -1 -0 -0 -1 -0 -0 -1 -0 -0 -1 -0 -0 -1 -0 -0 -1 -0 -0 -1 -0 -0 -1 -0 -0 -1 -0 -0 -1 -0 -0 -1 -0 -0 -1 -0 -0 -1 -0 -0 -1 -0 -0 -1 -0 -0 -1 -0 -0 -1 -0 -0 -1 -0 -0 -1 -0 -0 -1 -0 
VECTORS FF_Z_POS float
0 0 1 -7.40149e-17 -2.7391e-33 -1 0 1 0 -1 5.23364e-17 -2.22045e-16 5.23364e-17 -1 1.36955e-33 -1 0 0 5.23364e-17 -3.08149e-33 1 1 0 0 1 0 -0 0 1 0 0 -1 0 0 1 0 0 -0 1 -0 -0 -1 0 -0 1 -1 0 0 -1 0 0 1 -0 0 -1 0 0 0 1 0 0 -0 1 1 0 0 -1 0 0 -0 -0 -1 0 1 0 -1 -0 -0 1 0 -0 -1 -0 -0 0 0 -1 -1 0 0 1 0 0 -0 0 1 0 1 0 0 -1 0 0 1 0 1 -0 0 -1 0 0 -0 0 1 0 0 -1 1 0 0 0 0 -1 0 0 1 0 0 -1 0 0 1 0 0 -1 0 0 1 0 0 -1 0 1 -0 0 0 1 0 0 -1 0 0 1 -0 -1 -0 0 -1 0 0 1 -0 0 -1 0 0 0 -1 0 0 1 0 0 1 0 0 1 0 0 1 0 0 1 0 0 1 0 0 1 0 0 1 0 0 1 0 0 1 0 0 1 0 0 1 0 0 1 0 0 1 0 0 1 0 0 1 0 0 1 0 0 1 0 0 1 0 0 1 0 0 1 0 0 1 0 0 1 0 0 1 0 0 1 0 0 1 0 0 1 0 0 1 0 0 1 0 0 1 0 0 1 0 0 1 0 0 1 0 0 1 0 0 1 0 0 1 0 0 1 0 0 1 0 0 1 0 0 1 0 0 1 0 0 1 0 0 1 0 0 1 0 0 1 0 0 1 0 0 1 0 0 1 0 0 1 0 0 1 0 0 1 0 0 1 0 0 1 0 0 1 0 0 1 0 0 1 0 0 1 0 0 1 0 0 1 0 0 1 0 0 1 0 0 1 0 0 1 0 0 1 0 0 1 0 0 1 0 0 1 0 0 1 0 0 1 0 0 1 0 0 1 0 0 1 0 0 1 0 0 1 0 0 1 0 0 1 0 0 1 0 0 1 0 0 1 0 0 1 0 0 1 0 0 1 0 0 1 0 0 1 0 0 1 0 0 1 0 0 1 0 0 1 0 0 1 0 0 1 0 0 1 0 0 1 0 0 1 0 0 1 0 0 1 0 0 1 0 0 1 0 0 1 0 0 1 0 0 1 0 0 1 0 0 1 0 0 1 0 0 1 0 0 1 0 0 1 0 0 1 0 0 1 0 0 1 0 0 1 0 0 1 0 0 1 0 0 1 0 0 1 0 0 1 0 0 1 0 0 1 0 0 1 0 0 1 0 0 1 0 0 1 0 0 1 0 0 1 0 0 1 0 0 1 0 0 1 0 0 1 0 0 1 0 0 1 0 0 1 0 0 1 0 0 1 0 0 1 0 0 1 0 0 1 0 0 1 0 0 1 0 0 1 0 0 1 0 0 1 0 0 1 0 0 1 0 0 1 0 0 1 0 0 1 0 0 1 0 0 1 0 0 1 0 0 1 0 0 1 0 0 1 0 0 1 0 0 1 0 0 1 0 0 1 0 0 1 0 0 1 0 0 1 0 0 1 0 0 1 0 0 1 0 0 1 0 0 1 0 0 1 0 0 1 0 0 1 0 0 1 0 0 1 0 0 1 0 0 1 0 0 1 0 0 1 0 0 1 0 0 1 0 0 1 0 0 1 0 0 1 0 0 1 0 0 1 0 0 1 0 0 1 0 0 1 0 0 1 0 0 1 0 0 1 0 0 1 0 0 1 0 0 1 0 0 1 0 0 1 0 0 1 0 0 1 0 0 1 
VECTORS FF_Z_NEG float
-0 -0 -1 7.40149e-17 2.7391e-33 1 -0 -1 -0 1 -5.23364e-17 2.22045e-16 -5.23364e-17 1 -1.36955e-33 1 -0 -0 -5.23364e-17 3.08149e-33 -1 -1 -0 -0 -1 -0 0 -0 -1 -0 -0 1 -0 -0 -1 -0 -0 0 -1 0 0 1 -0 0 -1 1 -0 -0 1 -0 -0 -1 0 -0 1 -0 -0 -0 -1 -0 -0 0 -1 -1 -0 -0 1 -0 -0 0 0 1 -0 -1 -0 1 0 0 -1 -0 0 1 0 0 -0 -0 1 1 -0 -0 -1 -0 -0 0 -0 -1 -0 -1 -0 -0 1 -0 -0 -1 -0 -1 0 -0 1 -0 -0 0 -0 -1 -0 -0 1 -1 -0 -0 -0 -0 1 -0 -0 -1 -0 -0 1 -0 -0 -1 -0 -0 1 -0 -0 -1 -0 -0 1 -0 -1 0 -0 -0 -1 -0 -0 1 -0 -0 -1 0 1 0 -0 1 -0 -0 -1 0 -0 1 -0 -0 -0 1 -0 -0 -1 -0 -0 -1 -0 -0 -1 -0 -0 -1 -0 -0 -1 -0 -0 -1 -0 -0 -1 -0 -0 -1 -0 -0 -1 -0 -0 -1 -0 -0 -1 -0 -0 -1 -0 -0 -1 -0 -0 -1 -0 -0 -1 -0 -0 -1 -0 -0 -1 -0 -0 -1 -0 -0 -1 -0 -0 -1 -0 -0 -1 -0 -0 -1 -0 -0 -1 -0 -0 -1 -0 -0 -1 -0 -0 -1 -0 -0 -1 -0 -0 -1 -0 -0 -1 -0 -0 -1 -0 -0 -1 -0 -0 -1 -0 -0 -1 -0 -0 -1 -0 -0 -1 -0 -0 -1 -0 -0 -1 -0 -0 -1 -0 -0 -1 -0 -0 -1 -0 -0 -1 -0 -0 -1 -0 -0 -1 -0 -0 -1 -0 -0 -1 -0 -0 -1 -0 -0 -1 -0 -0 -1 -0 -0 -1 -0 -0 -1 -0 -0 -1 -0 -0 -1 -0 -0 -1 -0 -0 -1 -0 -0 -1 -0 -0 -1 -0 -0 -1 -0 -0 -1 -0 -0 -1 -0 -0 -1 -0 -0 -1 -0 -0 -1 -0 -0 -1 -0 -0 -1 -0 -0 -1 -0 -0 -1 -0 -0 -1 -0 -0 -1 -0 -0 -1 -0 -0 -1 -0 -0 -1 -0 -0 -1 -0 -0 -1 -0 -0 -1 -0 -0 -1 -0 -0 -1 -0 -0 -1 -0 -0 -1 -0 -0 -1 -0 -0 -1 -0 -0 -1 -0 -0 -1 -0 -0 -1 -0 -0 -1 -0 -0 -1 -0 -0 -1 -0 -0 -1 -0 -0 -1 -0 -0 -1 -0 -0 -1 -0 -0 -1 -0 -0 -1 -0 -0 -1 -0 -0 -1 -0 -0 -1 -0 -0 -1 -0 -0 -1 -0 -0 -1 -0 -0 -1 -0 -0 -1 -0 -0 -1 -0 -0 -1 -0 -0 -1 -0 -0 -1 -0 -0 -1 -0 -0 -1 -0 -0 -1 -0 -0 -1 -0 -0 -1 -0 -0 -1 -0 -0 -1 -0 -0 -1 -0 -0 -1 -0 -0 -1 -0 -0 -1 -0 -0 -1 -0 -0 -1 -0 -0 -1 -0 -0 -1 -0 -0 -1 -0 -0 -1 -0 -0 -1 -0 -0 -1 -0 -0 -1 -0 -0 -1 -0 -0 -1 -0 -0 -1 -0 -0 -1 -0 -0 -1 -0 -0 -1 -0 -0 -1 -0 -0 -1 -0 -0 -1 -0 -0 -1 -0 -0 -1 -0 -0 -1 -0 -0 -1 -0 -0 -1 -0 -0 -1 -0 -0 -1 -0 -0 -1 -0 -0 -1 -0 -0 -1 -0 -0 -1 -0 -0 -1 -0 -0 -1 -0 -0 -1 -0 -0 -1 -0 -0 -1 -0 -0 -1 -0 -0 -1 -0 -0 -1 -0 -0 -1 -0 -0 -1 -0 -0 -1 -0 -0 -1 -0 -0 -1 -0 -0 -1 -0 -0 -1 -0 -0 -1 -0 -0 -1 -0 -0 -1 -0 -0 -1 -0 -0 -1 -0 -0 -1 -0 -0 -1 -0 -0 -1 -0 -0 -1 -0 -0 -1 -0 -0 -1 -0 -0 -1 -0 -0 -1 -0 -0 -1 -0 -0 -1 -0 -0 -1 -0 -0 -1 -0 -0 -1 -0 -0 -1 -0 -0 -1 -0 -0 -1 -0 -0 -1 -0 -0 -1 -0 -0 -1 -0 -0 -1 -0 -0 -1 -0 -0 -1 -0 -0 -1 -0 -0 -1 -0 -0 -1 -0 -0 -1 -0 -0 -1 -0 -0 -1 -0 -0 -1 


CELL_DATA 1203
SCALARS GMDS_ID int 1
LOOKUP_TABLE default