# vtk DataFile Version 3.0
Generated by GMDS VTK Writer

ASCII
DATASET UNSTRUCTURED_GRID
POINTS 284 float
0 0 1
0 0 0
0 1 1
0 1 0
1 0 1
1 0 0
1 1 1
1 1 0
0 0 0.2
0 0 0.4
0 0 0.6
0 0 0.8
0 0.2 1
0 0.4 1
0 0.6 1
0 0.8 1
0 1 0.2
0 1 0.4
0 1 0.6
0 1 0.8
0 0.2 0
0 0.4 0
0 0.6 0
0 0.8 0
1 0 0.2
1 0 0.4
1 0 0.6
1 0 0.8
1 0.2 1
1 0.4 1
1 0.6 1
1 0.8 1
1 1 0.2
1 1 0.4
1 1 0.6
1 1 0.8
1 0.2 0
1 0.4 0
1 0.6 0
1 0.8 0
0.2 0 0
0.4 0 0
0.6 0 0
0.8 0 0
0.2 0 1
0.4 0 1
0.6 0 1
0.8 0 1
0.2 1 0
0.4 1 0
0.6 1 0
0.8 1 0
0.2 1 1
0.4 1 1
0.6 1 1
0.8 1 1
0 0.5 0.5
0 0.2875 0.2875
0 0.7125 0.2875
0 0.2875 0.7125
0 0.7125 0.7125
0 0.796064 0.489674
0 0.203936 0.510326
0 0.510326 0.796064
0 0.489674 0.203936
0 0.842986 0.157014
0 0.164462 0.164462
0 0.157014 0.842986
0 0.835538 0.835538
0 0.569656 0.368343
0 0.368548 0.431034
0 0.431043 0.631482
0 0.616454 0.574162
0 0.310968 0.87031
0 0.13118 0.312458
0 0.308327 0.13118
0 0.87031 0.306838
0 0.691673 0.86882
0 0.689032 0.12969
0 0.86882 0.687542
0 0.12969 0.693162
1 0.493857 0.49683
1 0.69315 0.297863
1 0.2875 0.7125
1 0.29795 0.294902
1 0.7125 0.7125
1 0.793646 0.511621
1 0.496732 0.182438
1 0.204891 0.5
1 0.492356 0.798746
1 0.157014 0.842986
1 0.167083 0.167083
1 0.835538 0.835538
1 0.832917 0.167083
1 0.625585 0.448426
1 0.364624 0.442955
1 0.577109 0.608173
1 0.311007 0.869321
1 0.688079 0.869357
1 0.863943 0.315314
1 0.133985 0.312397
1 0.868337 0.691932
1 0.312353 0.128885
1 0.134492 0.679909
1 0.681604 0.132664
1 0.40339 0.593201
1 0.495317 0.360569
0.5 0 0.5
0.2875 0 0.2875
0.2875 0 0.7125
0.7125 0 0.2875
0.7125 0 0.7125
0.489674 0 0.796064
0.510326 0 0.203936
0.203936 0 0.489674
0.796064 0 0.510326
0.157014 0 0.842986
0.164462 0 0.164462
0.842986 0 0.157014
0.835538 0 0.835538
0.368343 0 0.569656
0.431034 0 0.368548
0.631482 0 0.431043
0.574162 0 0.616454
0.87031 0 0.310968
0.312458 0 0.13118
0.13118 0 0.308327
0.306838 0 0.87031
0.12969 0 0.689032
0.86882 0 0.691673
0.687542 0 0.86882
0.693162 0 0.12969
0.5 1 0.5
0.2875 1 0.2875
0.2875 1 0.7125
0.7125 1 0.2875
0.7125 1 0.7125
0.489674 1 0.796064
0.510326 1 0.203936
0.203936 1 0.489674
0.796064 1 0.510326
0.157014 1 0.842986
0.164462 1 0.164462
0.842986 1 0.157014
0.835538 1 0.835538
0.368343 1 0.569656
0.431034 1 0.368548
0.631482 1 0.431043
0.574162 1 0.616454
0.87031 1 0.310968
0.312458 1 0.13118
0.13118 1 0.308327
0.306838 1 0.87031
0.12969 1 0.689032
0.86882 1 0.691673
0.687542 1 0.86882
0.693162 1 0.12969
0.493857 0.49683 0
0.69315 0.297863 0
0.2875 0.7125 0
0.29795 0.294902 0
0.7125 0.7125 0
0.793646 0.511621 0
0.496732 0.182438 0
0.204891 0.5 0
0.492356 0.798746 0
0.157014 0.842986 0
0.167083 0.167083 0
0.832917 0.167083 0
0.835538 0.835538 0
0.625585 0.448426 0
0.364624 0.442955 0
0.577109 0.608173 0
0.311007 0.869321 0
0.688079 0.869357 0
0.863943 0.315314 0
0.133985 0.312397 0
0.868337 0.691932 0
0.312353 0.128885 0
0.134492 0.679909 0
0.681604 0.132664 0
0.40339 0.593201 0
0.495317 0.360569 0
0.493857 0.49683 1
0.69315 0.297863 1
0.2875 0.7125 1
0.29795 0.294902 1
0.7125 0.7125 1
0.793646 0.511621 1
0.496732 0.182438 1
0.204891 0.5 1
0.492356 0.798746 1
0.157014 0.842986 1
0.167083 0.167083 1
0.832917 0.167083 1
0.835538 0.835538 1
0.625585 0.448426 1
0.364624 0.442955 1
0.577109 0.608173 1
0.311007 0.869321 1
0.688079 0.869357 1
0.863943 0.315314 1
0.133985 0.312397 1
0.868337 0.691932 1
0.312353 0.128885 1
0.134492 0.679909 1
0.681604 0.132664 1
0.40339 0.593201 1
0.495317 0.360569 1
0.500048 0.5 0.500048
0.711188 0.407818 0.294121
0.707096 0.699544 0.391174
0.71036 0.399394 0.705258
0.446627 0.428186 0.251092
0.541564 0.250003 0.422687
0.42739 0.284445 0.703873
0.636896 0.700155 0.692963
0.307359 0.692641 0.345259
0.319533 0.684993 0.684993
0.277211 0.336704 0.454402
0.500399 0.509848 0.757509
0.479742 0.754337 0.510642
0.792334 0.416639 0.500121
0.630293 0.206512 0.213328
0.768415 0.209513 0.399241
0.225777 0.555704 0.515271
0.257711 0.456693 0.761106
0.400063 0.200502 0.245001
0.215338 0.370137 0.218962
0.523315 0.660496 0.23351
0.623848 0.205554 0.790863
0.790325 0.202481 0.625186
0.212547 0.214077 0.643054
0.619589 0.365084 0.546429
0.672307 0.549955 0.574852
0.794216 0.61701 0.199798
0.816619 0.58605 0.732084
0.298017 0.560784 0.180333
0.807443 0.807509 0.611504
0.35396 0.517043 0.385912
0.814246 0.275936 0.187849
0.20863 0.191497 0.323581
0.447525 0.338646 0.539527
0.497604 0.165867 0.581024
0.383069 0.810481 0.188506
0.68265 0.79916 0.201672
0.210668 0.769665 0.520629
0.813595 0.266553 0.812948
0.188745 0.745253 0.186567
0.559721 0.472628 0
0.4292405 0.4698925 0
0.535483 0.5525015 0
0.4486235 0.5450155 0
0.494587 0.4286995 0
0.470242 0.462508 0.125546
0.508586 0.578663 0.116755
0.559721 0.472628 1
0.4292405 0.4698925 1
0.535483 0.5525015 1
0.4486235 0.5450155 1
0.494587 0.4286995 1
0.497128 0.503339 0.8787545
0.497858 0.4352085 0.8787545
0.4733375 0.464093 0.37557
0.520806 0.3750015 0.4613675
0.568472 0.6000775 0.5965055
0.5002235 0.504924 0.6287785
0.3629125 0.527852 0.5076595
0.5598185 0.432542 0.5232385
0.5861775 0.5249775 0.53745
0.427004 0.5085215 0.44298
0.4737865 0.419323 0.5197875
0.5686475 0.6050015 0.725236
0.586353 0.5299015 0.6661805
0.535483 0.5525015 0
0.3545975 0.4334835 0.109481
0.46154875 0.48336125 0
0.230774375 0.741680625 0
0.730774375 0.241680625 0
0.2476585 0.6154395 0.653419
0.230774375 0.676835625 0.153419
0.574813875 0.676359125 0
0.297766875 0.397879125 0
0.3440395 0.4346785 0.5

CELLS 26 104
3 3 7 138 
3 0 2 199 
3 6 4 199 
3 1 3 76 
3 7 6 138 
3 0 1 76 
3 1 5 174 
3 4 6 105 
3 3 2 76 
3 2 3 138 
3 4 208 199 
3 5 7 174 
3 3 1 174 
3 5 4 105 
3 6 7 105 
3 6 2 138 
3 7 3 174 
3 4 5 122 
3 1 0 122 
3 208 0 199 
3 5 1 122 
3 2 0 76 
3 0 4 122 
3 2 6 199 
3 7 5 105 
3 0 208 4 

CELL_TYPES 26
5 
5 
5 
5 
5 
5 
5 
5 
5 
5 
5 
5 
5 
5 
5 
5 
5 
5 
5 
5 
5 
5 
5 
5 
5 
5 
POINT_DATA 284
SCALARS GMDS_ID int 1
LOOKUP_TABLE default
0 1 2 3 4 5 6 7 8 9 10 11 12 13 14 15 16 17 18 19 20 21 22 23 24 25 26 27 28 29 30 31 32 33 34 35 36 37 38 39 40 41 42 43 44 45 46 47 48 49 50 51 52 53 54 55 56 57 58 59 60 61 62 63 64 65 66 67 68 69 70 71 72 73 74 75 76 77 78 79 80 81 82 83 84 85 86 87 88 89 90 91 92 93 94 95 96 97 98 99 100 101 102 103 104 105 106 107 108 109 110 111 112 113 114 115 116 117 118 119 120 121 122 123 124 125 126 127 128 129 130 131 132 133 134 135 136 137 138 139 140 141 142 143 144 145 146 147 148 149 150 151 152 153 154 155 156 157 158 159 160 161 162 163 164 165 166 167 168 169 170 171 172 173 174 175 176 177 178 179 180 181 182 183 184 185 186 187 188 189 190 191 192 193 194 195 196 197 198 199 200 201 202 203 204 205 206 207 208 209 210 211 212 213 214 215 216 217 218 219 220 221 222 223 224 225 226 227 228 229 230 231 232 233 234 235 236 237 238 239 240 241 242 243 244 245 246 247 248 249 250 251 252 253 254 255 256 257 258 259 260 261 262 263 264 265 266 267 268 269 270 271 272 273 274 275 276 277 278 279 280 281 282 283 
SCALARS BND_VERTEX_COLOR int 1
LOOKUP_TABLE default
1 2 3 4 5 6 7 8 0 0 0 0 0 0 0 0 0 0 0 0 0 0 0 0 0 0 0 0 0 0 0 0 0 0 0 0 0 0 0 0 0 0 0 0 0 0 0 0 0 0 0 0 0 0 0 0 0 0 0 0 0 0 0 0 0 0 0 0 0 0 0 0 0 0 0 0 0 0 0 0 0 0 0 0 0 0 0 0 0 0 0 0 0 0 0 0 0 0 0 0 0 0 0 0 0 0 0 0 0 0 0 0 0 0 0 0 0 0 0 0 0 0 0 0 0 0 0 0 0 0 0 0 0 0 0 0 0 0 0 0 0 0 0 0 0 0 0 0 0 0 0 0 0 0 0 0 0 0 0 0 0 0 0 0 0 0 0 0 0 0 0 0 0 0 0 0 0 0 0 0 0 0 0 0 0 0 0 0 0 0 0 0 0 0 0 0 0 0 0 0 0 0 0 0 0 0 0 0 0 0 0 0 0 0 0 0 0 0 0 0 0 0 0 0 0 0 0 0 0 0 0 0 0 0 0 0 0 0 0 0 0 0 0 0 0 0 0 0 0 0 0 0 0 0 0 0 0 0 0 0 0 0 0 0 0 0 0 0 0 0 0 0 0 0 0 0 0 0 0 0 0 0 0 0 
SCALARS BND_SURFACE_COLOR int 1
LOOKUP_TABLE default
0 0 0 0 0 0 0 0 0 0 0 0 0 0 0 0 0 0 0 0 0 0 0 0 0 0 0 0 0 0 0 0 0 0 0 0 0 0 0 0 0 0 0 0 0 0 0 0 0 0 0 0 0 0 0 0 4 4 4 4 4 4 4 4 4 4 4 4 4 4 4 4 4 4 4 4 4 4 4 4 4 2 2 2 2 2 2 2 2 2 2 2 2 2 2 2 2 2 2 2 2 2 2 2 2 2 2 6 6 6 6 6 6 6 6 6 6 6 6 6 6 6 6 6 6 6 6 6 6 6 6 6 3 3 3 3 3 3 3 3 3 3 3 3 3 3 3 3 3 3 3 3 3 3 3 3 3 5 5 5 5 5 5 5 5 5 5 5 5 5 5 5 5 5 5 5 5 5 5 5 5 5 5 1 1 1 1 1 1 1 1 1 1 1 1 1 1 1 1 1 1 1 1 1 1 1 1 1 1 0 0 0 0 0 0 0 0 0 0 0 0 0 0 0 0 0 0 0 0 0 0 0 0 0 0 0 0 0 0 0 0 0 0 0 0 0 0 0 0 5 5 5 5 5 0 0 1 1 1 1 1 0 0 0 0 0 0 0 0 0 0 0 0 0 5 0 5 5 5 0 0 5 5 0 
SCALARS BND_CURVE_COLOR int 1
LOOKUP_TABLE default
0 0 0 0 0 0 0 0 10 10 10 10 1 1 1 1 9 9 9 9 5 5 5 5 2 2 2 2 4 4 4 4 3 3 3 3 8 8 8 8 11 11 11 11 12 12 12 12 7 7 7 7 6 6 6 6 0 0 0 0 0 0 0 0 0 0 0 0 0 0 0 0 0 0 0 0 0 0 0 0 0 0 0 0 0 0 0 0 0 0 0 0 0 0 0 0 0 0 0 0 0 0 0 0 0 0 0 0 0 0 0 0 0 0 0 0 0 0 0 0 0 0 0 0 0 0 0 0 0 0 0 0 0 0 0 0 0 0 0 0 0 0 0 0 0 0 0 0 0 0 0 0 0 0 0 0 0 0 0 0 0 0 0 0 0 0 0 0 0 0 0 0 0 0 0 0 0 0 0 0 0 0 0 0 0 0 0 0 0 0 0 0 0 0 0 0 0 0 0 0 0 0 0 0 0 0 0 0 0 0 0 0 0 0 0 0 0 0 0 0 0 0 0 0 0 0 0 0 0 0 0 0 0 0 0 0 0 0 0 0 0 0 0 0 0 0 0 0 0 0 0 0 0 0 0 0 0 0 0 0 0 0 0 0 0 0 0 0 0 0 0 0 0 0 0 0 0 0 0 0 0 0 0 0 
SCALARS Ordering int 1
LOOKUP_TABLE default
153 154 155 156 157 158 159 160 161 162 163 164 165 166 167 168 169 170 171 172 173 174 175 176 177 178 179 180 181 182 183 184 185 186 187 188 189 190 191 192 193 194 195 196 197 198 199 200 201 202 203 204 205 206 207 208 0 1 2 3 4 5 6 7 8 9 10 11 12 13 14 15 16 17 18 19 20 21 22 23 24 25 26 27 28 29 30 31 32 33 34 35 36 37 38 39 40 41 42 43 44 45 46 47 48 49 50 51 52 53 54 55 56 57 58 59 60 61 62 63 64 65 66 67 68 69 70 71 72 73 74 75 76 77 78 79 80 81 82 83 84 85 86 87 88 89 90 91 92 93 94 95 96 97 98 99 100 101 102 103 104 105 106 107 108 109 110 111 112 113 114 115 116 117 118 119 120 121 122 123 124 125 126 127 128 129 130 131 132 133 134 135 136 137 138 139 140 141 142 143 144 145 146 147 148 149 150 151 152 209 210 211 212 213 214 215 216 217 218 219 220 221 222 223 224 225 226 227 228 229 230 231 232 233 234 235 236 237 238 239 240 241 242 243 244 245 246 247 248 0 0 0 0 0 0 0 0 0 0 0 0 0 0 0 0 0 0 0 0 0 0 0 0 0 0 0 0 0 0 0 0 0 0 0 


CELL_DATA 26
SCALARS GMDS_ID int 1
LOOKUP_TABLE default
7 16 30 52 56 74 107 116 117 127 133 149 168 181 223 228 245 246 279 281 292 306 333 374 392 396 

