# vtk DataFile Version 3.0
Generated by GMDS VTK Writer

ASCII
DATASET UNSTRUCTURED_GRID
POINTS 249 float
0 0 1
0 0 0
0 1 1
0 1 0
1 0 1
1 0 0
1 1 1
1 1 0
0 0 0.2
0 0 0.4
0 0 0.6
0 0 0.8
0 0.2 1
0 0.4 1
0 0.6 1
0 0.8 1
0 1 0.2
0 1 0.4
0 1 0.6
0 1 0.8
0 0.2 0
0 0.4 0
0 0.6 0
0 0.8 0
1 0 0.2
1 0 0.4
1 0 0.6
1 0 0.8
1 0.2 1
1 0.4 1
1 0.6 1
1 0.8 1
1 1 0.2
1 1 0.4
1 1 0.6
1 1 0.8
1 0.2 0
1 0.4 0
1 0.6 0
1 0.8 0
0.2 0 0
0.4 0 0
0.6 0 0
0.8 0 0
0.2 0 1
0.4 0 1
0.6 0 1
0.8 0 1
0.2 1 0
0.4 1 0
0.6 1 0
0.8 1 0
0.2 1 1
0.4 1 1
0.6 1 1
0.8 1 1
0 0.5 0.5
0 0.2875 0.2875
0 0.7125 0.2875
0 0.2875 0.7125
0 0.7125 0.7125
0 0.796064 0.489674
0 0.203936 0.510326
0 0.510326 0.796064
0 0.489674 0.203936
0 0.842986 0.157014
0 0.164462 0.164462
0 0.157014 0.842986
0 0.835538 0.835538
0 0.569656 0.368343
0 0.368548 0.431034
0 0.431043 0.631482
0 0.616454 0.574162
0 0.310968 0.87031
0 0.13118 0.312458
0 0.308327 0.13118
0 0.87031 0.306838
0 0.691673 0.86882
0 0.689032 0.12969
0 0.86882 0.687542
0 0.12969 0.693162
1 0.493857 0.49683
1 0.69315 0.297863
1 0.2875 0.7125
1 0.29795 0.294902
1 0.7125 0.7125
1 0.793646 0.511621
1 0.496732 0.182438
1 0.204891 0.5
1 0.492356 0.798746
1 0.157014 0.842986
1 0.167083 0.167083
1 0.835538 0.835538
1 0.832917 0.167083
1 0.625585 0.448426
1 0.364624 0.442955
1 0.577109 0.608173
1 0.311007 0.869321
1 0.688079 0.869357
1 0.863943 0.315314
1 0.133985 0.312397
1 0.868337 0.691932
1 0.312353 0.128885
1 0.134492 0.679909
1 0.681604 0.132664
1 0.40339 0.593201
1 0.495317 0.360569
0.5 0 0.5
0.2875 0 0.2875
0.2875 0 0.7125
0.7125 0 0.2875
0.7125 0 0.7125
0.489674 0 0.796064
0.510326 0 0.203936
0.203936 0 0.489674
0.796064 0 0.510326
0.157014 0 0.842986
0.164462 0 0.164462
0.842986 0 0.157014
0.835538 0 0.835538
0.368343 0 0.569656
0.431034 0 0.368548
0.631482 0 0.431043
0.574162 0 0.616454
0.87031 0 0.310968
0.312458 0 0.13118
0.13118 0 0.308327
0.306838 0 0.87031
0.12969 0 0.689032
0.86882 0 0.691673
0.687542 0 0.86882
0.693162 0 0.12969
0.5 1 0.5
0.2875 1 0.2875
0.2875 1 0.7125
0.7125 1 0.2875
0.7125 1 0.7125
0.489674 1 0.796064
0.510326 1 0.203936
0.203936 1 0.489674
0.796064 1 0.510326
0.157014 1 0.842986
0.164462 1 0.164462
0.842986 1 0.157014
0.835538 1 0.835538
0.368343 1 0.569656
0.431034 1 0.368548
0.631482 1 0.431043
0.574162 1 0.616454
0.87031 1 0.310968
0.312458 1 0.13118
0.13118 1 0.308327
0.306838 1 0.87031
0.12969 1 0.689032
0.86882 1 0.691673
0.687542 1 0.86882
0.693162 1 0.12969
0.493857 0.49683 0
0.69315 0.297863 0
0.2875 0.7125 0
0.29795 0.294902 0
0.7125 0.7125 0
0.793646 0.511621 0
0.496732 0.182438 0
0.204891 0.5 0
0.492356 0.798746 0
0.157014 0.842986 0
0.167083 0.167083 0
0.832917 0.167083 0
0.835538 0.835538 0
0.625585 0.448426 0
0.364624 0.442955 0
0.577109 0.608173 0
0.311007 0.869321 0
0.688079 0.869357 0
0.863943 0.315314 0
0.133985 0.312397 0
0.868337 0.691932 0
0.312353 0.128885 0
0.134492 0.679909 0
0.681604 0.132664 0
0.40339 0.593201 0
0.495317 0.360569 0
0.493857 0.49683 1
0.69315 0.297863 1
0.2875 0.7125 1
0.29795 0.294902 1
0.7125 0.7125 1
0.793646 0.511621 1
0.496732 0.182438 1
0.204891 0.5 1
0.492356 0.798746 1
0.157014 0.842986 1
0.167083 0.167083 1
0.832917 0.167083 1
0.835538 0.835538 1
0.625585 0.448426 1
0.364624 0.442955 1
0.577109 0.608173 1
0.311007 0.869321 1
0.688079 0.869357 1
0.863943 0.315314 1
0.133985 0.312397 1
0.868337 0.691932 1
0.312353 0.128885 1
0.134492 0.679909 1
0.681604 0.132664 1
0.40339 0.593201 1
0.495317 0.360569 1
0.500048 0.5 0.500048
0.711188 0.407818 0.294121
0.707096 0.699544 0.391174
0.71036 0.399394 0.705258
0.446627 0.428186 0.251092
0.541564 0.250003 0.422687
0.42739 0.284445 0.703873
0.636896 0.700155 0.692963
0.307359 0.692641 0.345259
0.319533 0.684993 0.684993
0.277211 0.336704 0.454402
0.500399 0.509848 0.757509
0.479742 0.754337 0.510642
0.792334 0.416639 0.500121
0.630293 0.206512 0.213328
0.768415 0.209513 0.399241
0.225777 0.555704 0.515271
0.257711 0.456693 0.761106
0.400063 0.200502 0.245001
0.215338 0.370137 0.218962
0.523315 0.660496 0.23351
0.623848 0.205554 0.790863
0.790325 0.202481 0.625186
0.212547 0.214077 0.643054
0.619589 0.365084 0.546429
0.672307 0.549955 0.574852
0.794216 0.61701 0.199798
0.816619 0.58605 0.732084
0.298017 0.560784 0.180333
0.807443 0.807509 0.611504
0.35396 0.517043 0.385912
0.814246 0.275936 0.187849
0.20863 0.191497 0.323581
0.447525 0.338646 0.539527
0.497604 0.165867 0.581024
0.383069 0.810481 0.188506
0.68265 0.79916 0.201672
0.210668 0.769665 0.520629
0.813595 0.266553 0.812948
0.188745 0.745253 0.186567

CELLS 1 5
4 127 215 109 208 

CELL_TYPES 1
10 
POINT_DATA 249
SCALARS GMDS_ID int 1
LOOKUP_TABLE default
0 1 2 3 4 5 6 7 8 9 10 11 12 13 14 15 16 17 18 19 20 21 22 23 24 25 26 27 28 29 30 31 32 33 34 35 36 37 38 39 40 41 42 43 44 45 46 47 48 49 50 51 52 53 54 55 56 57 58 59 60 61 62 63 64 65 66 67 68 69 70 71 72 73 74 75 76 77 78 79 80 81 82 83 84 85 86 87 88 89 90 91 92 93 94 95 96 97 98 99 100 101 102 103 104 105 106 107 108 109 110 111 112 113 114 115 116 117 118 119 120 121 122 123 124 125 126 127 128 129 130 131 132 133 134 135 136 137 138 139 140 141 142 143 144 145 146 147 148 149 150 151 152 153 154 155 156 157 158 159 160 161 162 163 164 165 166 167 168 169 170 171 172 173 174 175 176 177 178 179 180 181 182 183 184 185 186 187 188 189 190 191 192 193 194 195 196 197 198 199 200 201 202 203 204 205 206 207 208 209 210 211 212 213 214 215 216 217 218 219 220 221 222 223 224 225 226 227 228 229 230 231 232 233 234 235 236 237 238 239 240 241 242 243 244 245 246 247 248 
SCALARS BND_VERTEX_COLOR int 1
LOOKUP_TABLE default
1 2 3 4 5 6 7 8 0 0 0 0 0 0 0 0 0 0 0 0 0 0 0 0 0 0 0 0 0 0 0 0 0 0 0 0 0 0 0 0 0 0 0 0 0 0 0 0 0 0 0 0 0 0 0 0 0 0 0 0 0 0 0 0 0 0 0 0 0 0 0 0 0 0 0 0 0 0 0 0 0 0 0 0 0 0 0 0 0 0 0 0 0 0 0 0 0 0 0 0 0 0 0 0 0 0 0 0 0 0 0 0 0 0 0 0 0 0 0 0 0 0 0 0 0 0 0 0 0 0 0 0 0 0 0 0 0 0 0 0 0 0 0 0 0 0 0 0 0 0 0 0 0 0 0 0 0 0 0 0 0 0 0 0 0 0 0 0 0 0 0 0 0 0 0 0 0 0 0 0 0 0 0 0 0 0 0 0 0 0 0 0 0 0 0 0 0 0 0 0 0 0 0 0 0 0 0 0 0 0 0 0 0 0 0 0 0 0 0 0 0 0 0 0 0 0 0 0 0 0 0 0 0 0 0 0 0 0 0 0 0 0 0 0 0 0 0 0 0 
SCALARS BND_SURFACE_COLOR int 1
LOOKUP_TABLE default
0 0 0 0 0 0 0 0 0 0 0 0 0 0 0 0 0 0 0 0 0 0 0 0 0 0 0 0 0 0 0 0 0 0 0 0 0 0 0 0 0 0 0 0 0 0 0 0 0 0 0 0 0 0 0 0 4 4 4 4 4 4 4 4 4 4 4 4 4 4 4 4 4 4 4 4 4 4 4 4 4 2 2 2 2 2 2 2 2 2 2 2 2 2 2 2 2 2 2 2 2 2 2 2 2 2 2 6 6 6 6 6 6 6 6 6 6 6 6 6 6 6 6 6 6 6 6 6 6 6 6 6 3 3 3 3 3 3 3 3 3 3 3 3 3 3 3 3 3 3 3 3 3 3 3 3 3 5 5 5 5 5 5 5 5 5 5 5 5 5 5 5 5 5 5 5 5 5 5 5 5 5 5 1 1 1 1 1 1 1 1 1 1 1 1 1 1 1 1 1 1 1 1 1 1 1 1 1 1 0 0 0 0 0 0 0 0 0 0 0 0 0 0 0 0 0 0 0 0 0 0 0 0 0 0 0 0 0 0 0 0 0 0 0 0 0 0 0 0 
SCALARS BND_CURVE_COLOR int 1
LOOKUP_TABLE default
0 0 0 0 0 0 0 0 10 10 10 10 1 1 1 1 9 9 9 9 5 5 5 5 2 2 2 2 4 4 4 4 3 3 3 3 8 8 8 8 11 11 11 11 12 12 12 12 7 7 7 7 6 6 6 6 0 0 0 0 0 0 0 0 0 0 0 0 0 0 0 0 0 0 0 0 0 0 0 0 0 0 0 0 0 0 0 0 0 0 0 0 0 0 0 0 0 0 0 0 0 0 0 0 0 0 0 0 0 0 0 0 0 0 0 0 0 0 0 0 0 0 0 0 0 0 0 0 0 0 0 0 0 0 0 0 0 0 0 0 0 0 0 0 0 0 0 0 0 0 0 0 0 0 0 0 0 0 0 0 0 0 0 0 0 0 0 0 0 0 0 0 0 0 0 0 0 0 0 0 0 0 0 0 0 0 0 0 0 0 0 0 0 0 0 0 0 0 0 0 0 0 0 0 0 0 0 0 0 0 0 0 0 0 0 0 0 0 0 0 0 0 0 0 0 0 0 0 0 0 0 0 0 0 0 0 0 0 0 0 0 0 0 0 0 0 0 0 0 
SCALARS Ordering int 1
LOOKUP_TABLE default
153 154 155 156 157 158 159 160 161 162 163 164 165 166 167 168 169 170 171 172 173 174 175 176 177 178 179 180 181 182 183 184 185 186 187 188 189 190 191 192 193 194 195 196 197 198 199 200 201 202 203 204 205 206 207 208 0 1 2 3 4 5 6 7 8 9 10 11 12 13 14 15 16 17 18 19 20 21 22 23 24 25 26 27 28 29 30 31 32 33 34 35 36 37 38 39 40 41 42 43 44 45 46 47 48 49 50 51 52 53 54 55 56 57 58 59 60 61 62 63 64 65 66 67 68 69 70 71 72 73 74 75 76 77 78 79 80 81 82 83 84 85 86 87 88 89 90 91 92 93 94 95 96 97 98 99 100 101 102 103 104 105 106 107 108 109 110 111 112 113 114 115 116 117 118 119 120 121 122 123 124 125 126 127 128 129 130 131 132 133 134 135 136 137 138 139 140 141 142 143 144 145 146 147 148 149 150 151 152 209 210 211 212 213 214 215 216 217 218 219 220 221 222 223 224 225 226 227 228 229 230 231 232 233 234 235 236 237 238 239 240 241 242 243 244 245 246 247 248 


CELL_DATA 1
SCALARS GMDS_ID int 1
LOOKUP_TABLE default
438 

