# vtk DataFile Version 3.0
Generated by GMDS VTK Writer

ASCII
DATASET UNSTRUCTURED_GRID
POINTS 2128 float
21.7743 -67.1613 -23.7406
-10.1912 -67.7126 -23.7403
10.8894 -57.4711 -23.7355
-7.57008 11.7774 13.1259
16.3838 -14.1535 -14.0185
-14.6328 4.29934 -9.76903
16.6468 -26.5361 -28.6716
10.8382 0.5 -29.7252
-10.2534 -62.3522 -23.7387
-5.05355 -62.5542 -23.7427
-14.3145 -2.20468 -1.54614
3.97882 2.48238 6.6423
-8.5995 6.97136 33.2181
-11.8789 7.99422 34.9639
0.0196438 -21.6439 -28.726
-19.2394 -1.80519 -0.947634
9.97308 1.84536 -14.0426
0.0121836 -9.42402 -15.2149
-0.00181966 -4.82568 -16.4299
10.6145 -2.15835 -21.711
1.81281 28.8749 60.4519
15.0971 9.61571 37.2592
-28 -8.04584 -29.0289
-0.0843661 2.43003 6.52594
17.9738 9.44512 -0.91059
-3.74153 11.5873 12.791
-5.0921 -57.3559 -18.7502
0.000845358 -31.2121 -23.6597
-9.95789 -9.43301 -4.65828
22.4389 -12.0078 -23.9724
22.386 -57.3825 -23.7345
6.49644 8.08825 26.2693
6.57389 20.7165 19.0228
2.61942 20.4309 18.4955
-14.7999 2.2336 26.3494
-13.7417 -3.97042 5.06386
-8.00627 5.07197 11.2008
5.28687 -20.3657 -18.7034
-5.06736 -62.6046 -13.7576
-15.8498 -62.094 -13.7582
-16.5449 -26.2827 -28.6842
-22.1369 -51.3708 -28.7321
-16.0089 -56.9202 -13.7554
5.32908 -21.7385 -28.7276
-8.77762 8.80058 -1.97312
22.2966 -57.3267 -28.7366
-22.2906 -46.402 -28.723
-14.122 2.21358 -3.49516
16.6453 -41.8269 -23.6995
-22.3792 -30.5452 -18.6118
-18.1528 5.06855 1.34102
10.881 -57.4554 -18.7478
-7.64842 7.55679 15.505
13.7015 -3.89946 5.14176
-11.3051 40.4324 55.1491
-10.8777 -31.0711 -23.6486
16.0886 -12.1566 -9.34066
20.6153 -13.1222 -1.41835
15.3074 -9.30834 -4.33201
-7.59455 16.0991 10.6847
15.4702 -2.60347 -11.9313
11.7227 7.89869 16.1335
11.9163 18.3553 4.49854
0.0137805 -41.5548 -13.7366
22.3338 -25.0355 -13.6602
10.8704 -36.526 -23.6737
-22.391 -30.915 -23.6265
-10.6717 -21.1074 -23.6965
22.3844 -12.8179 -33.75
0.0254559 -21.2334 -23.6937
5.33416 -25.733 -18.6268
-22.4215 -15.3241 -18.7723
4.23838 -0.0108762 2.33978
0.0513445 -12.035 -24.3413
16.5572 -30.59 -13.692
10.8178 -62.6953 -28.7377
-16.3667 -41.4719 -28.7183
16.5996 -21.7655 -28.6755
-10.7716 -41.3577 -13.7378
10.8293 -36.3432 -18.6801
16.3813 -62.559 -18.7506
10.9509 -25.6952 -18.601
5.1459 -6.53454 -20.5512
5.06941 -4.81475 -16.4593
10.8518 -26.5478 -28.6911
-8.59694 -1.68701 9.11583
8.29768 6.92473 4.68887
19.7149 34.1313 44.8656
-5.19333 -21.1867 -23.6976
9.25536 1.98669 -3.8281
-16.3409 -46.5335 -13.7455
4.11256 8.70397 -2.15382
10.1889 8.67778 27.2411
-15.644 -62.0788 -18.7525
8.47487 -1.64334 9.18376
-11.6231 7.87499 16.0593
11.4984 12.1714 13.7546
-15.8054 -4.58683 -16.0649
10.8207 -62.6908 -23.7412
-3.83891 4.92293 10.9243
5.32511 -21.2957 -23.6944
-4.76175 -5.00232 -6.40277
7.16972 5.69017 22.2492
16.5648 -52.258 -18.7408
-9.55481 8.5244 -12.529
16.6293 -21.4053 -23.6348
9.34739 -2.40083 -1.84672
-19.75 19.2317 41.8936
6.90438 18.5174 14.9397
13.5922 0.387954 2.96733
5.34646 -46.9849 -18.7306
20.2337 -4.45223 -5.38441
16.4651 -57.4462 -13.7552
19.7487 19.2257 41.9111
-5.09796 -57.3211 -13.7559
16.4607 -57.4537 -23.7346
10.9222 -41.7291 -18.7098
-8.03857 0.781123 13.5353
18.162 5.10881 1.35616
5.25355 -12.1124 -24.2692
22.4365 -47.0922 -28.7245
-0.291658 6.72344 4.28589
-22.2445 -46.3945 -13.7424
-0.00074599 -0.297449 -18.0468
0.0719572 -57.4441 -18.75
-12.2019 9.64036 9.33083
-8.89002 0.11906 2.44203
-10.6553 -3.99444 -29.56
5.28268 -26.2058 -23.6511
-15.4852 24.6429 39.938
15.4891 24.5855 39.9933
28 -57.3559 -23.7352
1.91823 14.2874 27.0481
-2.29402 31.03 64.2139
-19.6366 4.66055 -9.18384
3.58623 13.5388 6.21886
20.5873 -8.95808 -3.77251
12.2843 5.40524 11.7533
5.42181 -52.2802 -23.7312
12.0164 20.0158 27.9578
-11.4931 12.1251 13.6839
19.8197 23.9522 39.1604
22.1641 -62.396 -23.7381
0.029611 -46.9148 -13.7477
5.19831 -19.2015 -13.6775
5.36824 -52.2745 -13.7535
4.46396 1.88364 -4.05856
-5.07476 -62.5666 -18.7524
22.3386 -10.7996 -19.1802
-11.6826 26.6521 55.9753
0.0358678 -26.1523 -23.6648
-16.4931 -8.12774 -29.1595
-15.4354 -2.59492 -11.803
19.7441 24.3269 50.5482
-13.978 6.64645 -5.69747
-16.0589 -6.30931 -20.3829
12.1817 9.68251 9.42477
-17.3559 3.24891 7.86363
5.26028 -36.2815 -18.6817
16.3755 10.0862 10.048
-14.5627 -10.8831 2.65088
-10.821 -26.0076 -23.6555
-10.1634 -67.707 -28.7405
2.61249 12.0887 23.3789
-15.0408 -4.74003 -5.92777
-16.4295 -10.7861 -19.5601
-3.70935 7.36501 15.1432
10.6094 -62.7471 -13.7569
-15.2376 -67.1128 -28.7408
10.8646 -47.0473 -13.7487
16.2669 -67.8467 -23.7408
22.4555 -52.2627 -23.7289
-19.8327 38.7937 42.1436
-17.9512 41.1077 46.168
-19.8498 29.0482 36.1665
-10.7168 -46.6924 -18.727
-10.3639 -62.403 -13.7575
2.71811 7.76055 25.7685
-16.5021 -41.3023 -18.7065
5.40562 -52.2724 -28.7317
-3.58484 3.01662 17.5249
0.0661566 -57.4035 -13.7559
0.011438 -21.8563 -33.75
-2.7675 12.0143 23.2734
-16.5237 -30.2372 -13.681
-12.892 2.86069 7.28498
-28 -3.854 -29.1805
-5.23636 -30.8508 -18.6527
22.4214 -36.535 -23.665
-22.316 -41.2396 -23.686
-5.15665 -52.0562 -28.7345
3.64706 9.19937 8.62723
16.2783 -6.44408 -20.3056
2.25111 31.043 64.2298
11.8507 8.0004 34.8703
-5.22609 -21.5729 -28.7254
0.033415 -41.7618 -28.7201
5.31301 -57.4601 -18.7498
3.74905 0.641594 13.2715
5.01224 -0.295659 -18.0023
-19.7871 23.9936 39.1233
-21.6577 -61.7272 -13.7588
-16.4367 -41.3718 -23.6923
10.3177 -0.231994 -17.7733
-5.32286 -31.3485 -28.6954
5.08398 -9.40088 -15.278
-8.53913 2.61567 6.83349
10.8239 -31.0114 -18.6526
-13.5268 4.6771 0.73067
-15.49 -67.3869 -18.7571
0.0906123 -62.6883 -23.739
-0.0506507 2.96855 17.453
15.3896 12.6003 14.459
-22.3927 -35.6567 -13.7078
-15.52 8.30447 16.7344
16.0652 -4.7088 -16.0903
-10.7414 -15.5658 -19.0098
-10.6788 -25.3332 -18.6266
-22.0436 -56.089 -28.7371
17.3656 3.2982 7.97967
5.37093 -52.257 -18.7429
5.33914 -67.9828 -23.7408
15.2864 -13.5414 -2.16399
-16.5723 -20.2854 -18.6145
13.4724 4.71176 0.782253
-5.50875 22.7236 22.9189
0.0323614 -16.6049 -23.894
-22.395 -36.2242 -28.7039
16.6698 -41.6273 -13.7331
-5.15949 -52.0991 -18.7415
-16.648 -25.926 -23.5937
-17.9636 21.7012 57.6749
3.41899 15.9179 10.3713
8.9548 -4.16184 4.7271
-22.4737 -16.8501 -28.741
-0.00971328 -36.5294 -28.7095
-12.8531 7.15346 5.01101
5.36567 -47.0862 -28.728
10.8795 -4.06771 -33.75
-2.74109 16.174 20.8603
16.63 -46.9937 -13.7442
-5.05131 -62.5288 -28.7377
16.348 -62.5995 -23.7397
-10.81 -30.6584 -18.6311
-17.5629 -1.06806 10.1708
-10.649 -14.1101 -14.1632
-13.9705 11.0565 -8.14324
2.28221 46.4772 55.3313
22.5012 -41.7351 -18.7056
-16.2518 -51.6056 -28.732
-10.8626 -26.3145 -28.7006
28 -12.0342 -23.8933
-16.1114 -9.24925 -14.899
-10.731 -20.2866 -18.672
9.43227 -6.74055 0.153319
-22.4368 -31.165 -28.6903
22.483 -41.8191 -23.6972
-28 -46.3758 -18.7271
-14.6578 6.63578 23.8282
-8.42416 6.89571 4.55751
-5.23638 -36.2989 -23.6666
-5.17788 -52.0811 -23.7295
10.831 -12.0529 -24.2733
13.5722 13.7357 26.0933
-10.7186 -24.6708 -13.6585
-3.22006 9.714 19.2913
17.9178 26.5939 54.7381
16.2322 -62.5908 -13.7561
-22.3786 -8.08825 -29.0135
0.0175183 1.84294 -4.16131
-22.2939 -46.3965 -18.7224
5.32791 -41.8297 -28.7204
-5.23684 -41.6579 -28.7173
8.69811 8.84498 -1.89798
22.4529 -12.7011 -28.8072
-15.1492 25.0913 28.3072
-19.7888 8.78583 17.5066
-4.80882 6.21545 -16.5282
-9.82629 -4.9427 -6.28018
10.8513 -26.1922 -23.62
18.0014 21.7591 57.6078
-9.37008 -2.41887 -1.91215
-0.037906 -1.41557 19.8736
0.0566525 -41.6068 -18.7061
-4.21802 11.0904 1.96786
-9.49392 -11.0328 2.39582
5.34053 -57.4814 -23.7355
0.0138801 -7.58164 -24.9112
-14.6367 10.9191 21.3337
19.2481 -1.82224 -0.876189
-10.9162 10.4178 20.4946
11.958 24.0532 25.7094
7.9005 13.7099 6.51875
10.7374 -6.44936 -20.5093
-6.44873 16.4527 21.3915
8.72464 4.44271 0.418097
22.4172 -3.4044 -25.069
-0.0658101 7.3087 15.087
22.4653 -7.58833 -24.3965
-8.75141 27.4019 21.5977
-3.41391 18.2291 14.4332
6.83235 13.3087 34.4025
4.84142 1.787 -14.1292
-10.0039 12.9193 24.7038
-5.12932 -52.1114 -13.7537
-10.3455 -57.1832 -18.7484
6.98175 45.9877 54.4866
22.4121 -15.455 -18.741
-15.0241 9.52855 37.2837
16.5631 -57.4177 -18.746
11.4669 16.4651 11.3187
22.3114 -36.1724 -13.7091
-28 -30.5864 -18.6179
3.83197 4.95206 10.9346
-21.8897 -9.11073 -14.6141
-11.5054 16.4402 11.2701
7.46777 16.1177 10.7185
-17.9448 26.4057 54.8831
5.36093 -26.4922 -28.6953
10.7499 -10.9826 -19.6379
-16.6791 -21.0472 -23.6464
11.1627 35.6843 57.8572
14.9686 33.9557 55.1359
-13.5184 21.976 21.3266
-8.00829 9.34102 8.86017
-15.93 -56.7609 -23.7374
12.0704 12.2316 32.4456
5.32897 -47.0077 -13.7478
-5.0532 -67.9188 -23.7417
-11.9935 15.8037 37.4248
18.8254 6.99993 -5.10136
-10.6029 -3.40286 -25.5517
-14.7989 -0.251785 -7.62669
-13.6081 0.352908 2.86599
-16.5766 -12.4625 -28.8831
-5.08083 -73.1777 -13.7614
-10.7092 -41.5684 -28.7154
-15.4362 12.5439 14.3637
10.1696 16.9808 22.4256
0.0557353 -41.704 -23.6984
-0.376082 18.1705 14.333
-21.1378 -66.873 -13.762
-5.03898 -67.837 -28.7399
5.36167 -57.5026 -28.7368
22.1557 -62.3092 -28.7384
10.2822 -7.39259 -10.7252
10.839 -21.3431 -23.6637
-16.5168 -15.5116 -18.9315
10.5583 -9.44753 -15.0672
-17.6525 -5.38803 12.566
-10.7136 -16.4768 -23.8737
-5.11193 -62.5443 -8.75
-22.4838 -12.3439 -28.8487
-28 -12.3175 -28.8514
-20.5001 -65.8412 -23.7468
-10.5312 -51.9392 -13.7531
-5.09929 -57.3238 -8.75
28 -62.3836 -23.7394
-5.06483 -67.935 -13.7589
-0.117996 9.66152 19.2191
-22.3706 -20.2679 -18.5549
22.281 -19.2247 -13.5733
-16.2298 -51.7207 -18.7413
-16.6642 -16.4276 -23.8243
-16.5152 -11.9103 -24.1461
-10.8646 -35.9547 -13.7244
10.8438 -17.092 -28.7867
5.36281 -36.6116 -28.7024
-10.6752 0.5 -26.4746
22.3703 -41.8945 -28.7152
13.6843 17.8046 23.9526
-20.1645 -4.37387 -5.36427
-13.4417 9.04444 -1.57549
-13.4011 13.43 -4.03223
-15.8762 -56.8798 -18.7493
-15.3376 -9.29675 -4.39485
-22.1679 -3.30699 -25.0744
-22.4671 -30.1952 -13.6642
-22.3374 -24.712 -13.624
-0.0336007 1.76718 -14.2274
8.78097 23.2566 23.9747
-5.16698 -46.8274 -13.7448
6.45371 12.4047 23.8709
21.9603 27.5009 56.6549
-20.5867 -8.95843 -3.8299
16.4592 -24.9849 -13.6699
21.2416 -6.99394 -10.0459
[...]
POINT_DATA 2128
SCALARS GMDS_ID int 1
LOOKUP_TABLE default
0 1 2 3 4 5 6 7 8 9 10 11 12 13 14 15 16 17 18 19 20 21 22 23 24 25 26 27 28 29 30 31 32 33 34 35 36 37 38 39 40 41 42 43 44 45 46 47 48 49 50 51 52 53 54 55 56 57 58 59 60 61 62 63 64 65 66 67 68 69 70 71 72 73 74 75 76 77 78 79 80 81 82 83 84 85 86 87 88 89 90 91 92 93 94 95 96 97 98 99 100 101 102 103 104 105 106 107 108 109 110 111 112 113 114 115 116 117 118 119 120 121 122 123 124 125 126 127 128 129 130 131 132 133 134 135 136 137 138 139 140 141 142 143 144 145 146 147 148 149 150 151 152 153 154 155 156 157 158 159 160 161 162 163 164 165 166 167 168 169 170 171 172 173 174 175 176 177 178 179 180 181 182 183 184 185 186 187 188 189 190 191 192 193 194 195 196 197 198 199 200 201 202 203 204 205 206 207 208 209 210 211 212 213 214 215 216 217 218 219 220 221 222 223 224 225 226 227 228 229 230 231 232 233 234 235 236 237 238 239 240 241 242 243 244 245 246 247 248 249 250 251 252 253 254 255 256 257 258 259 260 261 262 263 264 265 266 267 268 269 270 271 272 273 274 275 276 277 278 279 280 281 282 283 284 285 286 287 288 289 290 291 292 293 294 295 296 297 298 299 300 301 302 303 304 305 306 307 308 309 310 311 312 313 314 315 316 317 318 319 320 321 322 323 324 325 326 327 328 329 330 331 332 333 334 335 336 337 338 339 340 341 342 343 344 345 346 347 348 349 350 351 352 353 354 355 356 357 358 359 360 361 362 363 364 365 366 367 368 369 370 371 372 373 374 375 376 377 378 379 380 381 382 383 384 385 386 387 388 389 390 391 392 393 394 395 396 397 398 399 400 401 402 403 404 405 406 407 408 409 410 411 412 413 414 415 416 417 418 419 420 421 422 423 424 425 426 427 428 429 430 431 432 433 434 435 436 437 438 439 440 441 442 443 444 445 446 447 448 449 450 451 452 453 454 455 456 457 458 459 460 461 462 463 464 465 466 467 468 469 470 471 472 473 474 475 476 477 478 479 480 481 482 483 484 485 486 487 488 489 490 491 492 493 494 495 496 497 498 499 500 501 502 503 504 505 506 507 508 509 510 511 512 513 514 515 516 517 518 519 520 521 522 523 524 525 526 527 528 529 530 531 532 533 534 535 536 537 538 539 540 541 542 543 544 545 546 547 548 549 550 551 552 553 554 555 556 557 558 559 560 561 562 563 564 565 566 567 568 569 570 571 572 573 574 575 576 577 578 579 580 581 582 583 584 585 586 587 588 589 590 591 592 593 594 595 596 597 598 599 600 601 602 603 604 605 606 607 608 609 610 611 612 613 614 615 616 617 618 619 620 621 622 623 624 625 626 627 628 629 630 631 632 633 634 635 636 637 638 639 640 641 642 643 644 645 646 647 648 649 650 651 652 653 654 655 656 657 658 659 660 661 662 663 664 665 666 667 668 669 670 671 672 673 674 675 676 677 678 679 680 681 682 683 684 685 686 687 688 689 690 691 692 693 694 695 696 697 698 699 700 701 702 703 704 705 706 707 708 709 710 711 712 713 714 715 716 717 718 719 720 721 722 723 724 725 726 727 728 729 730 731 732 733 734 735 736 737 738 739 740 741 742 743 744 745 746 747 748 749 750 751 752 753 754 755 756 757 758 759 760 761 762 763 764 765 766 767 768 769 770 771 772 773 774 775 776 777 778 779 780 781 782 783 784 785 786 787 788 789 790 791 792 793 794 795 796 797 798 799 800 801 802 803 804 805 806 807 808 809 810 811 812 813 814 815 816 817 818 819 820 821 822 823 824 825 826 827 828 829 830 831 832 833 834 835 836 837 838 839 840 841 842 843 844 845 846 847 848 849 850 851 852 853 854 855 856 857 858 859 860 861 862 863 864 865 866 867 868 869 870 871 872 873 874 875 876 877 878 879 880 881 882 883 884 885 886 887 888 889 890 891 892 893 894 895 896 897 898 899 900 901 902 903 904 905 906 907 908 909 910 911 912 913 914 915 916 917 918 919 920 921 922 923 924 925 926 927 928 929 930 931 932 933 934 935 936 937 938 939 940 941 942 943 944 945 946 947 948 949 950 951 952 953 954 955 956 957 958 959 960 961 962 963 964 965 966 967 968 969 970 971 972 973 974 975 976 977 978 979 980 981 982 983 984 985 986 987 988 989 990 991 992 993 994 995 996 997 998 999 1000 1001 1002 1003 1004 1005 1006 1007 1008 1009 1010 1011 1012 1013 1014 1015 1016 1017 1018 1019 1020 1021 1022 1023 1024 1025 1026 1027 1028 1029 1030 1031 1032 1033 1034 1035 1036 1037 1038 1039 1040 1041 1042 1043 1044 1045 1046 1047 1048 1049 1050 1051 1052 1053 1054 1055 1056 1057 1058 1059 1060 1061 1062 1063 1064 1065 1066 1067 1068 1069 1070 1071 1072 1073 1074 1075 1076 1077 1078 1079 1080 1081 1082 1083 1084 1085 1086 1087 1088 1089 1090 1091 1092 1093 1094 1095 1096 1097 1098 1099 1100 1101 1102 1103 1104 1105 1106 1107 1108 1109 1110 1111 1112 1113 1114 1115 1116 1117 1118 1119 1120 1121 1122 1123 1124 1125 1126 1127 1128 1129 1130 1131 1132 1133 1134 1135 1136 1137 1138 1139 1140 1141 1142 1143 1144 1145 1146 1147 1148 1149 1150 1151 1152 1153 1154 1155 1156 1157 1158 1159 1160 1161 1162 1163 1164 1165 1166 1167 1168 1169 1170 1171 1172 1173 1174 1175 1176 1177 1178 1179 1180 1181 1182 1183 1184 1185 1186 1187 1188 1189 1190 1191 1192 1193 1194 1195 1196 1197 1198 1199 1200 1201 1202 1203 1204 1205 1206 1207 1208 1209 1210 1211 1212 1213 1214 1215 1216 1217 1218 1219 1220 1221 1222 1223 1224 1225 1226 1227 1228 1229 1230 1231 1232 1233 1234 1235 1236 1237 1238 1239 1240 1241 1242 1243 1244 1245 1246 1247 1248 1249 1250 1251 1252 1253 1254 1255 1256 1257 1258 1259 1260 1261 1262 1263 1264 1265 1266 1267 1268 1269 1270 1271 1272 1273 1274 1275 1276 1277 1278 1279 1280 1281 1282 1283 1284 1285 1286 1287 1288 1289 1290 1291 1292 1293 1294 1295 1296 1297 1298 1299 1300 1301 1302 1303 1304 1305 1306 1307 1308 1309 1310 1311 1312 1313 1314 1315 1316 1317 1318 1319 1320 1321 1322 1323 1324 1325 1326 1327 1328 1329 1330 1331 1332 1333 1334 1335 1336 1337 1338 1339 1340 1341 1342 1343 1344 1345 1346 1347 1348 1349 1350 1351 1352 1353 1354 1355 1356 1357 1358 1359 1360 1361 1362 1363 1364 1365 1366 1367 1368 1369 1370 1371 1372 1373 1374 1375 1376 1377 1378 1379 1380 1381 1382 1383 1384 1385 1386 1387 1388 1389 1390 1391 1392 1393 1394 1395 1396 1397 1398 1399 1400 1401 1402 1403 1404 1405 1406 1407 1408 1409 1410 1411 1412 1413 1414 1415 1416 1417 1418 1419 1420 1421 1422 1423 1424 1425 1426 1427 1428 1429 1430 1431 1432 1433 1434 1435 1436 1437 1438 1439 1440 1441 1442 1443 1444 1445 1446 1447 1448 1449 1450 1451 1452 1453 1454 1455 1456 1457 1458 1459 1460 1461 1462 1463 1464 1465 1466 1467 1468 1469 1470 1471 1472 1473 1474 1475 1476 1477 1478 1479 1480 1481 1482 1483 1484 1485 1486 1487 1488 1489 1490 1491 1492 1493 1494 1495 1496 1497 1498 1499 1500 1501 1502 1503 1504 1505 1506 1507 1508 1509 1510 1511 1512 1513 1514 1515 1516 1517 1518 1519 1520 1521 1522 1523 1524 1525 1526 1527 1528 1529 1530 1531 1532 1533 1534 1535 1536 1537 1538 1539 1540 1541 1542 1543 1544 1545 1546 1547 1548 1549 1550 1551 1552 1553 1554 1555 1556 1557 1558 1559 1560 1561 1562 1563 1564 1565 1566 1567 1568 1569 1570 1571 1572 1573 1574 1575 1576 1577 1578 1579 1580 1581 1582 1583 1584 1585 1586 1587 1588 1589 1590 1591 1592 1593 1594 1595 1596 1597 1598 1599 1600 1601 1602 1603 1604 1605 1606 1607 1608 1609 1610 1611 1612 1613 1614 1615 1616 1617 1618 1619 1620 1621 1622 1623 1624 1625 1626 1627 1628 1629 1630 1631 1632 1633 1634 1635 1636 1637 1638 1639 1640 1641 1642 1643 1644 1645 1646 1647 1648 1649 1650 1651 1652 1653 1654 1655 1656 1657 1658 1659 1660 1661 1662 1663 1664 1665 1666 1667 1668 1669 1670 1671 1672 1673 1674 1675 1676 1677 1678 1679 1680 1681 1682 1683 1684 1685 1686 1687 1688 1689 1690 1691 1692 1693 1694 1695 1696 1697 1698 1699 1700 1701 1702 1703 1704 1705 1706 1707 1708 1709 1710 1711 1712 1713 1714 1715 1716 1717 1718 1719 1720 1721 1722 1723 1724 1725 1726 1727 1728 1729 1730 1731 1732 1733 1734 1735 1736 1737 1738 1739 1740 1741 1742 1743 1744 1745 1746 1747 1748 1749 1750 1751 1752 1753 1754 1755 1756 1757 1758 1759 1760 1761 1762 1763 1764 1765 1766 1767 1768 1769 1770 1771 1772 1773 1774 1775 1776 1777 1778 1779 1780 1781 1782 1783 1784 1785 1786 1787 1788 1789 1790 1791 1792 1793 1794 1795 1796 1797 1798 1799 1800 1801 1802 1803 1804 1805 1806 1807 1808 1809 1810 1811 1812 1813 1814 1815 1816 1817 1818 1819 1820 1821 1822 1823 1824 1825 1826 1827 1828 1829 1830 1831 1832 1833 1834 1835 1836 1837 1838 1839 1840 1841 1842 1843 1844 1845 1846 1847 1848 1849 1850 1851 1852 1853 1854 1855 1856 1857 1858 1859 1860 1861 1862 1863 1864 1865 1866 1867 1868 1869 1870 1871 1872 1873 1874 1875 1876 1877 1878 1879 1880 1881 1882 1883 1884 1885 1886 1887 1888 1889 1890 1891 1892 1893 1894 1895 1896 1897 1898 1899 1900 1901 1902 1903 1904 1905 1906 1907 1908 1909 1910 1911 1912 1913 1914 1915 1916 1917 1918 1919 1920 1921 1922 1923 1924 1925 1926 1927 1928 1929 1930 1931 1932 1933 1934 1935 1936 1937 1938 1939 1940 1941 1942 1943 1944 1945 1946 1947 1948 1949 1950 1951 1952 1953 1954 1955 1956 1957 1958 1959 1960 1961 1962 1963 1964 1965 1966 1967 1968 1969 1970 1971 1972 1973 1974 1975 1976 1977 1978 1979 1980 1981 1982 1983 1984 1985 1986 1987 1988 1989 1990 1991 1992 1993 1994 1995 1996 1997 1998 1999 2000 2001 2002 2003 2004 2005 2006 2007 2008 2009 2010 2011 2012 2013 2014 2015 2016 2017 2018 2019 2020 2021 2022 2023 2024 2025 2026 2027 2028 2029 2030 2031 2032 2033 2034 2035 2036 2037 2038 2039 2040 2041 2042 2043 2044 2045 2046 2047 2048 2049 2050 2051 2052 2053 2054 2055 2056 2057 2058 2059 2060 2061 2062 2063 2064 2065 2066 2067 2068 2069 2070 2071 2072 2073 2074 2075 2076 2077 2078 2079 2080 2081 2082 2083 2084 2085 2086 2087 2088 2089 2090 2091 2092 2093 2094 2095 2096 2097 2098 2099 2100 2101 2102 2103 2104 2105 2106 2107 2108 2109 2110 2111 2112 2113 2114 2115 2116 2117 2118 2119 2120 2121 2122 2123 2124 2125 2126 2127 
SCALARS BND_VERTEX_COLOR int 1
LOOKUP_TABLE default
0 0 0 0 0 0 0 0 0 0 0 0 0 0 0 0 0 0 0 0 0 0 0 0 0 0 0 0 0 0 0 0 0 0 0 0 0 0 0 0 0 0 0 0 0 0 0 0 0 0 0 0 0 0 0 0 0 0 0 0 0 0 0 0 0 0 0 0 0 0 0 0 0 0 0 0 0 0 0 0 0 0 0 0 0 0 0 0 0 0 0 0 0 0 0 0 0 0 0 0 0 0 0 0 0 0 0 0 0 0 0 0 0 0 0 0 0 0 0 0 0 0 0 0 0 0 0 0 0 0 0 0 0 0 0 0 0 0 0 0 0 0 0 0 0 0 0 0 0 0 0 0 0 0 0 0 0 0 0 0 0 0 0 0 0 0 0 0 0 0 0 0 0 0 0 0 0 0 0 0 0 0 0 0 0 0 0 0 0 0 0 0 0 0 0 0 0 0 0 0 0 0 0 0 0 0 0 0 0 0 0 0 0 0 0 0 0 0 0 0 0 0 0 0 0 0 0 0 0 0 0 0 0 0 0 0 0 0 0 0 0 0 0 0 0 0 0 0 0 0 0 0 0 0 0 0 0 0 0 0 0 0 0 0 0 0 0 0 0 0 0 0 0 0 0 0 0 0 0 0 0 0 0 0 0 0 0 0 0 0 0 0 0 0 0 0 0 0 0 0 0 0 0 0 0 0 0 0 0 0 0 0 0 0 0 0 0 0 0 0 0 0 0 0 0 0 0 0 0 0 0 0 0 0 0 0 0 0 0 0 0 0 0 0 0 0 0 0 0 0 0 0 0 0 0 0 0 0 0 0 0 0 0 0 0 0 0 0 0 0 0 0 0 0 0 0 0 0 0 0 0 0 0 0 0 0 0 0 0 0 0 0 0 0 0 0 0 0 0 0 0 0 0 0 0 0 0 0 0 0 0 0 0 0 0 0 0 0 0 0 0 0 0 0 0 0 0 0 0 0 0 0 0 0 0 0 0 0 0 0 0 0 0 0 0 0 0 0 0 0 0 0 0 0 0 0 0 0 0 0 0 0 0 0 0 0 0 0 0 0 0 0 0 0 0 0 0 0 0 0 0 0 0 0 0 0 0 0 0 0 0 0 0 0 0 0 0 0 0 0 0 0 0 0 0 0 0 0 0 0 0 0 0 0 0 0 0 0 0 0 0 0 0 0 0 0 0 0 0 0 0 0 0 0 0 0 0 0 0 0 0 0 0 0 0 0 0 0 0 0 0 0 0 0 0 0 0 0 0 0 0 0 0 0 0 0 0 0 0 0 0 0 0 0 0 0 0 0 0 0 0 0 0 0 0 0 0 0 0 0 0 0 0 0 0 0 0 0 0 0 0 0 0 0 0 0 0 0 0 0 0 0 0 0 0 0 0 0 0 0 0 0 0 0 0 0 0 0 0 0 0 0 0 0 0 0 0 0 0 0 0 0 0 0 0 0 0 0 0 0 0 0 0 0 0 0 0 0 0 0 0 0 0 0 0 0 0 0 0 0 0 0 0 0 0 0 0 0 0 0 0 0 0 0 0 0 0 0 0 0 0 0 0 0 0 0 0 0 0 0 0 0 0 0 0 0 0 0 0 0 0 0 0 0 0 0 0 0 0 0 0 0 0 0 0 0 0 0 0 0 0 0 0 0 0 0 0 0 0 0 0 0 0 0 0 0 0 0 0 0 0 0 0 0 0 0 0 0 0 0 0 0 0 0 0 0 0 0 0 0 0 0 0 0 0 0 0 0 0 0 0 0 0 0 0 0 0 0 0 0 0 0 0 0 0 0 0 0 0 0 0 0 0 0 0 0 0 0 0 0 0 0 0 0 0 0 0 0 0 0 0 0 0 0 0 0 0 0 0 0 0 0 0 0 0 0 0 0 0 0 0 0 0 0 0 0 0 0 0 0 0 0 0 0 0 0 0 0 0 0 0 0 0 0 0 0 0 0 0 0 0 0 0 0 0 0 0 0 0 0 0 0 0 0 0 0 0 0 0 0 0 0 0 0 0 0 0 0 0 0 0 0 0 0 0 0 0 0 0 0 0 0 0 0 0 0 0 0 0 0 0 0 0 0 0 0 0 0 0 0 0 0 0 0 0 0 0 0 0 0 0 0 0 0 0 0 0 0 0 0 0 0 0 0 0 0 0 0 0 0 0 0 0 0 0 0 0 0 0 0 0 0 0 0 0 0 0 0 0 0 0 0 0 0 0 0 0 0 0 0 0 0 0 0 0 0 0 0 0 0 0 0 0 0 0 0 0 0 0 0 0 0 0 0 0 0 0 0 0 0 0 0 0 0 0 0 0 0 0 0 0 0 0 0 0 0 0 0 0 0 0 0 0 0 0 0 0 0 0 0 0 0 0 0 0 0 0 0 0 0 0 0 0 0 0 0 0 0 0 0 0 0 0 0 0 0 0 0 0 0 0 0 0 0 0 0 0 0 0 0 0 0 0 0 0 0 0 0 0 0 0 0 0 0 0 0 0 0 0 0 0 0 0 0 0 0 0 0 0 0 0 0 0 0 0 0 0 0 0 0 0 0 0 0 0 0 0 0 0 0 0 0 0 0 0 0 0 0 0 0 0 0 0 0 0 0 0 0 0 0 0 0 0 0 0 0 0 0 0 0 0 0 0 0 0 0 0 0 0 0 0 0 0 0 0 0 0 0 0 0 0 0 0 0 0 0 0 0 0 0 0 0 0 0 0 0 0 0 0 0 0 0 0 0 0 0 0 0 0 0 0 0 0 0 0 0 0 0 0 0 0 0 0 0 0 0 0 0 0 0 0 0 0 0 0 0 0 0 0 0 0 0 0 0 0 0 0 0 0 0 0 0 0 0 0 0 0 0 0 0 0 0 0 0 0 0 0 0 0 0 0 0 0 0 0 0 0 0 0 0 0 0 0 0 0 0 0 0 0 0 0 0 0 0 0 0 0 0 0 0 0 0 0 0 0 0 0 0 0 0 0 0 0 0 0 0 0 0 0 0 0 0 0 0 0 0 0 0 0 0 0 0 0 0 0 0 0 0 0 0 0 0 0 0 0 0 0 0 0 0 0 0 0 0 0 0 0 0 0 0 0 0 0 0 0 0 0 0 0 0 0 0 0 0 0 0 0 0 0 0 0 0 0 0 0 0 0 0 0 0 0 0 0 0 0 0 0 0 0 0 0 0 0 0 0 0 0 0 0 0 0 0 0 0 0 0 0 0 0 0 0 0 0 0 0 0 0 0 0 0 0 0 0 0 0 0 0 0 0 0 0 0 0 0 0 0 0 0 0 0 0 0 0 0 0 0 0 0 0 0 0 0 0 0 0 0 0 0 0 0 0 0 0 0 0 0 0 0 0 0 0 0 0 0 0 0 0 0 0 0 0 0 0 0 0 0 0 0 0 0 0 0 0 0 0 0 0 0 0 0 0 0 0 0 0 0 0 0 0 0 0 0 0 0 0 0 0 0 0 0 0 0 0 0 0 0 0 0 0 0 0 0 0 0 0 0 0 0 0 0 0 0 0 0 0 0 0 0 0 0 0 0 0 0 0 0 0 0 0 0 0 0 0 0 0 0 0 0 0 0 0 0 0 0 0 0 0 0 0 0 0 0 0 0 0 0 0 0 0 0 0 0 0 0 0 0 0 0 0 0 0 0 0 0 0 0 0 0 0 0 0 0 0 0 0 0 0 0 0 0 0 0 0 0 0 0 0 0 0 0 0 0 0 0 0 0 0 0 0 0 0 0 0 0 0 0 0 0 0 0 0 0 0 0 0 0 0 0 0 0 0 0 0 0 0 0 0 0 0 0 0 0 0 0 0 0 0 0 0 0 0 0 0 0 0 0 0 0 0 0 0 0 0 0 0 0 0 0 0 0 0 0 0 0 0 0 0 0 0 0 0 0 0 0 0 0 0 0 0 0 0 0 0 0 0 0 0 0 0 0 0 0 0 0 0 0 0 0 0 0 0 0 0 0 0 0 0 0 0 0 0 0 0 0 0 0 0 0 0 0 0 0 0 0 0 0 0 0 0 0 0 0 0 0 0 0 0 0 0 0 0 0 0 0 0 0 0 0 0 0 0 0 0 0 0 0 0 0 0 0 0 0 0 0 0 0 0 0 0 0 0 0 0 0 0 0 0 0 0 0 0 0 0 0 0 0 0 0 0 0 0 0 0 0 0 0 0 0 0 0 0 0 0 0 0 0 0 0 0 0 0 0 0 0 0 0 0 0 0 0 0 0 0 0 0 0 0 0 0 0 0 0 0 0 0 0 0 0 0 0 0 0 0 0 0 0 0 0 0 0 0 0 0 0 0 0 0 0 0 0 0 0 0 0 0 0 0 0 0 0 0 0 0 0 0 0 0 0 0 0 0 0 0 0 0 0 0 0 0 0 0 0 0 0 0 0 0 0 0 0 0 0 0 0 0 0 0 0 0 0 0 0 0 0 0 0 0 0 0 0 0 0 0 0 0 0 0 0 0 0 0 0 0 0 0 0 0 0 0 0 0 0 0 0 0 0 0 0 0 0 0 0 0 0 0 0 0 0 0 0 0 0 0 0 0 0 0 0 0 0 0 0 0 0 0 0 0 0 0 0 0 0 0 0 0 0 0 0 0 0 0 0 0 0 0 0 0 0 0 0 0 0 0 0 0 0 0 0 0 0 0 0 0 0 0 0 0 0 0 0 0 0 0 0 0 0 0 0 0 0 0 0 0 0 0 0 0 0 0 0 0 0 0 0 0 0 0 0 0 0 0 0 0 0 0 0 0 0 0 0 0 0 0 0 0 0 0 0 
SCALARS BND_CURVE_COLOR int 1
LOOKUP_TABLE default
0 0 0 0 0 0 0 0 0 0 0 0 0 0 0 0 0 0 0 0 0 0 0 0 0 0 0 0 0 0 0 0 0 0 0 0 0 0 0 0 0 0 0 0 0 0 0 0 0 0 0 0 0 0 0 0 0 0 0 0 0 0 0 0 0 0 0 0 0 0 0 0 0 0 0 0 0 0 0 0 0 0 0 0 0 0 0 0 0 0 0 0 0 0 0 0 0 0 0 0 0 0 0 0 0 0 0 0 0 0 0 0 0 0 0 0 0 0 0 0 0 0 0 0 0 0 0 0 0 0 0 0 0 0 0 0 0 0 0 0 0 0 0 0 0 0 0 0 0 0 0 0 0 0 0 0 0 0 0 0 0 0 0 0 0 0 0 0 0 0 0 0 0 0 0 0 0 0 0 0 0 0 0 0 0 0 0 0 0 0 0 0 0 0 0 0 0 0 0 0 0 0 0 0 0 0 0 0 0 0 0 0 0 0 0 0 0 0 0 0 0 0 0 0 0 0 0 0 0 0 0 0 0 0 0 0 0 0 0 0 0 0 0 0 0 0 0 0 0 0 0 0 0 0 0 0 0 0 0 0 0 0 0 0 0 0 0 0 0 0 0 0 0 0 0 0 0 0 0 0 0 0 0 0 0 0 0 0 0 0 0 0 0 0 0 0 0 0 0 0 0 0 0 0 0 0 0 0 0 0 0 0 0 0 0 0 0 0 0 0 0 0 0 0 0 0 0 0 0 0 0 0 0 0 0 0 0 0 0 0 0 0 0 0 0 0 0 0 0 0 0 0 0 0 0 0 0 0 0 0 0 0 0 0 0 0 0 0 0 0 0 0 0 0 0 0 0 0 0 0 0 0 0 0 0 0 0 0 0 0 0 0 0 0 0 0 0 0 0 0 0 0 0 0 0 0 0 0 0 0 0 0 0 0 0 0 0 0 0 0 0 0 0 0 0 0 0 0 0 0 0 0 0 0 0 0 0 0 0 0 0 0 0 0 0 0 0 0 0 0 0 0 0 0 0 0 0 0 0 0 0 0 0 0 0 0 0 0 0 0 0 0 0 0 0 0 0 0 0 0 0 0 0 0 0 0 0 0 0 0 0 0 0 0 0 0 0 0 0 0 0 0 0 0 0 0 0 0 0 0 0 0 0 0 0 0 0 0 0 0 0 0 0 0 0 0 0 0 0 0 0 0 0 0 0 0 0 0 0 0 0 0 0 0 0 0 0 0 0 0 0 0 0 0 0 0 0 0 0 0 0 0 0 0 0 0 0 0 0 0 0 0 0 0 0 0 0 0 0 0 0 0 0 0 0 0 0 0 0 0 0 0 0 0 0 0 0 0 0 0 0 0 0 0 0 0 0 0 0 0 0 0 0 0 0 0 0 0 0 0 0 0 0 0 0 0 0 0 0 0 0 0 0 0 0 0 0 0 0 0 0 0 0 0 0 0 0 0 0 0 0 0 0 0 0 0 0 0 0 0 0 0 0 0 0 0 0 0 0 0 0 0 0 0 0 0 0 0 0 0 0 0 0 0 0 0 0 0 0 0 0 0 0 0 0 0 0 0 0 0 0 0 0 0 0 0 0 0 0 0 0 0 0 0 0 0 0 0 0 0 0 0 0 0 0 0 0 0 0 0 0 0 0 0 0 0 0 0 0 0 0 0 0 0 0 0 0 0 0 0 0 0 0 0 0 0 0 0 0 0 0 0 0 0 0 0 0 0 0 0 0 0 0 0 0 0 0 0 0 0 0 0 0 0 0 0 0 0 0 0 0 0 0 0 0 0 0 0 0 0 0 0 0 0 0 0 0 0 0 0 0 0 0 0 0 0 0 0 0 0 0 0 0 0 0 0 0 0 0 0 0 0 0 0 0 0 0 0 0 0 0 0 2 0 0 0 0 0 0 0 0 0 0 0 0 0 0 0 0 0 0 0 0 0 0 0 0 0 0 0 0 0 0 0 0 0 0 0 0 0 0 0 0 0 0 0 0 0 0 0 0 0 0 0 0 0 0 0 0 0 0 0 0 0 0 0 0 0 0 0 0 0 0 0 0 0 0 0 0 0 0 0 0 0 0 0 0 0 0 0 0 0 0 0 0 0 0 0 0 0 0 0 0 0 0 0 0 0 0 0 0 0 0 0 0 0 0 0 0 0 0 0 0 0 0 0 0 0 0 0 0 0 0 0 0 0 0 0 0 0 0 0 0 0 0 0 0 0 0 0 0 0 0 0 0 0 0 0 0 0 0 0 0 0 0 0 0 0 0 0 0 0 0 0 0 0 0 0 0 0 0 0 0 0 0 0 0 0 0 0 0 0 0 0 0 0 0 0 0 0 0 0 0 0 0 0 0 0 0 0 0 0 0 0 0 0 0 0 0 0 0 0 0 0 0 0 0 0 0 0 0 0 0 0 0 0 0 0 0 0 0 0 0 0 0 0 0 0 0 0 0 0 0 0 0 0 0 0 0 0 0 0 0 0 0 0 0 0 0 0 0 0 0 0 0 0 0 0 0 0 0 0 0 0 0 0 0 0 0 0 0 0 0 0 0 0 0 0 0 0 0 0 0 0 0 0 0 0 0 0 0 0 0 0 0 0 0 0 0 0 0 0 0 0 5 0 0 0 0 0 0 0 0 0 0 0 0 0 0 0 0 0 0 0 0 0 0 0 0 0 0 0 0 0 0 0 0 0 1 0 0 0 0 0 0 0 0 0 0 0 0 0 0 0 0 0 0 0 0 0 0 0 0 0 0 0 0 0 0 0 0 0 0 0 0 0 2 0 0 0 0 0 0 0 0 0 0 0 0 0 0 0 0 0 0 0 0 0 0 0 0 0 0 0 0 0 0 0 0 0 0 0 0 0 7 0 0 0 0 0 0 0 0 0 0 0 0 0 0 1 0 0 0 0 8 0 0 0 0 0 0 0 0 0 0 0 0 0 0 0 0 0 0 0 0 0 0 0 0 0 2 0 0 0 0 0 4 0 0 0 0 0 0 0 0 0 0 0 0 0 9 0 0 0 0 0 0 0 0 0 0 0 0 0 0 0 0 0 0 0 0 0 0 0 0 0 0 0 0 0 0 0 0 0 0 0 0 0 0 0 0 0 0 0 0 0 0 0 0 0 0 0 0 0 0 0 0 0 0 0 0 0 0 0 0 0 0 0 0 0 0 0 0 0 0 0 0 0 0 0 0 0 2 0 0 0 0 0 0 0 0 0 0 0 0 0 0 0 0 1 0 0 0 0 0 0 0 0 0 0 0 0 7 0 0 0 0 0 0 0 0 0 0 0 0 0 0 0 0 0 2 0 0 0 0 0 0 0 0 0 0 0 0 0 0 0 0 0 0 0 0 0 0 0 0 0 0 0 0 0 0 0 0 0 0 0 0 0 0 0 0 2 0 0 0 0 0 0 0 0 0 0 0 0 0 0 0 0 0 0 0 0 0 0 0 0 0 0 0 0 0 0 0 0 6 0 0 0 2 0 0 0 0 0 0 0 0 0 0 0 0 0 0 0 0 0 0 0 0 0 0 0 0 0 2 0 0 0 0 0 0 0 0 0 0 0 0 0 0 0 0 0 0 6 0 0 0 0 0 7 0 0 0 0 0 0 0 0 0 0 0 0 0 0 0 0 0 0 0 0 0 0 0 0 0 0 13 0 0 0 0 0 0 0 0 0 0 0 0 0 0 0 0 15 0 0 0 7 0 0 0 0 0 0 0 12 0 0 0 12 6 0 0 0 0 0 0 0 0 2 0 0 0 0 16 0 17 0 0 0 15 0 0 0 0 0 0 0 13 0 13 12 12 0 0 17 13 0 0 0 0 0 0 0 20 20 0 0 21 0 0 0 0 23 15 0 0 0 13 0 13 0 13 0 0 12 12 0 0 0 16 15 0 12 0 0 20 26 18 13 17 3 0 26 22 22 0 0 0 26 23 13 0 23 1 23 26 26 17 16 0 0 23 20 20 0 0 0 13 17 3 21 15 14 16 0 16 13 0 21 26 0 21 21 22 25 25 0 0 25 22 22 18 14 13 20 22 22 26 0 17 3 16 17 0 21 0 0 0 13 15 1 13 23 25 25 12 20 12 22 16 0 22 14 3 3 26 0 0 26 12 26 21 13 13 26 26 20 20 22 17 0 21 0 13 0 22 13 22 18 0 18 15 14 21 13 0 25 12 21 0 22 15 23 16 17 0 0 0 21 12 12 23 13 13 13 21 14 13 23 22 22 21 21 23 21 20 20 15 21 20 22 14 12 13 0 12 18 16 17 0 21 13 21 21 21 21 13 21 21 12 13 12 12 13 21 25 16 22 13 12 13 25 21 12 21 0 13 0 13 21 17 13 17 16 13 18 0 16 13 22 12 13 22 12 12 28 27 25 25 13 12 0 22 0 22 0 0 22 29 32 22 22 0 22 13 0 14 33 31 0 12 12 18 22 12 30 34 22 22 21 12 0 0 0 0 0 0 0 0 0 0 0 0 0 0 0 0 0 0 0 0 0 0 0 0 0 0 0 0 0 0 0 0 0 0 0 0 0 0 0 0 0 0 0 0 0 0 0 0 0 0 0 0 0 0 0 0 0 0 0 0 0 0 0 0 0 0 0 0 0 0 0 0 0 0 0 0 0 0 0 0 0 0 0 0 0 0 0 0 0 0 0 0 0 0 0 0 0 0 0 0 0 0 0 0 0 0 0 0 0 6 0 0 0 0 0 0 0 0 0 0 3 0 0 0 1 0 0 3 0 0 3 0 0 1 1 0 0 0 0 0 0 0 0 0 0 0 
SCALARS BND_SURFACE_COLOR int 1
LOOKUP_TABLE default