# vtk DataFile Version 3.0
Generated by GMDS VTK Writer

ASCII
DATASET UNSTRUCTURED_GRID
POINTS 27 float
1 0.5 0.5
0.5 0.5 0
0.5 0.5 0.5
0.5 0.5 1
0.5 1 0.5
0 0.5 1
1 0 0.5
1 1 0.5
1 0.5 1
0 0.5 0
0.5 1 1
0.5 1 0
1 0.5 0
0 1 0.5
0 0 0.5
0.5 0 1
0.5 0 0
1 1 1
0 0 0
1 0 0
1 1 0
1 0 1
0 1 1
0 1 0
0 0 1
0.5 0 0.5
0 0.5 0.5

CELLS 27 135
4 0 0 0 0 
4 1 1 1 1 
4 2 2 2 2 
4 3 3 3 3 
4 4 4 4 4 
4 5 5 5 5 
4 6 6 6 6 
4 7 7 7 7 
4 8 8 8 8 
4 9 9 9 9 
4 10 10 10 10 
4 11 11 11 11 
4 12 12 12 12 
4 13 13 13 13 
4 14 14 14 14 
4 15 15 15 15 
4 16 16 16 16 
4 17 17 17 17 
4 18 18 18 18 
4 19 19 19 19 
4 20 20 20 20 
4 21 21 21 21 
4 22 22 22 22 
4 23 23 23 23 
4 24 24 24 24 
4 25 25 25 25 
4 26 26 26 26 

CELL_TYPES 27
10 
10 
10 
10 
10 
10 
10 
10 
10 
10 
10 
10 
10 
10 
10 
10 
10 
10 
10 
10 
10 
10 
10 
10 
10 
10 
10 
POINT_DATA 27
SCALARS GMDS_ID int 1
LOOKUP_TABLE default
0 1 2 3 4 5 6 7 8 9 10 11 12 13 14 15 16 17 18 19 20 21 22 23 24 25 26 


