# vtk DataFile Version 3.0
Generated by GMDS VTK Writer

ASCII
DATASET UNSTRUCTURED_GRID
POINTS 8 float
1 1 1
0 0 0
1 0 0
1 1 0
1 0 1
0 1 1
0 1 0
0 0 1

CELLS 8 40
4 0 0 0 0 
4 1 1 1 1 
4 2 2 2 2 
4 3 3 3 3 
4 4 4 4 4 
4 5 5 5 5 
4 6 6 6 6 
4 7 7 7 7 

CELL_TYPES 8
10 
10 
10 
10 
10 
10 
10 
10 
POINT_DATA 8
SCALARS GMDS_ID int 1
LOOKUP_TABLE default
0 1 2 3 4 5 6 7 


