# vtk DataFile Version 3.0
Generated by GMDS VTK Writer

ASCII
DATASET UNSTRUCTURED_GRID
POINTS 64 float
0.325589 0.321757 1
0.315935 0.686913 0.685843
0.32168 0.323176 0
0.67753 0.318867 0
0.320619 1 0.67301
0.679569 0.322267 0.681678
0.681301 0.31989 1
0.321823 0.320017 0.323645
0 0.67739 0.67513
0.677454 0.325661 0.32607
1 0.676039 0.324456
0.321341 0.671718 1
0.680505 0.671113 1
0.67867 0.679851 0.684651
0.321156 1 0.321927
0.679422 1 0.322722
0.322767 0 0.321749
0 0.68332 0.321858
0.317425 0.684702 0.320301
0.680671 0.677842 0.327603
0.677768 0 0.32277
0 0.322508 0.675574
0 0.323828 0.321439
0.326009 0 0.673584
0.680636 0 0.679393
0.679291 1 0.675043
0.679932 0.678183 0
1 1 1
0 0 -1.8735e-17
1 0 0
0.320778 0.681056 0
1 1 0
1 0 1
0 1 1
0 1 0
0 0 1
1 0.673688 0.680244
1 0.671046 0
0 0.67121 1
1 0 0.677043
0.674392 0 0
1 1 0.675039
0.328297 0 1
0.325356 1 1
0 1 0.324148
0 0.329084 0
1 0.323386 0
1 0.32162 1
0.676803 0 1
1 0.665335 1
0 0.67645 0
0.67387 1 0
0.326111 0 0
0.324957 1 0
0 0 0.325989
0 0.326127 1
1 0 0.327805
0 0 0.674423
1 1 0.327854
0.672319 1 1
0 1 0.667294
1 0.324399 0.32759
0.322853 0.324357 0.682479
1 0.322944 0.682626

CELLS 64 320
4 0 0 0 0 
4 1 1 1 1 
4 2 2 2 2 
4 3 3 3 3 
4 4 4 4 4 
4 5 5 5 5 
4 6 6 6 6 
4 7 7 7 7 
4 8 8 8 8 
4 9 9 9 9 
4 10 10 10 10 
4 11 11 11 11 
4 12 12 12 12 
4 13 13 13 13 
4 14 14 14 14 
4 15 15 15 15 
4 16 16 16 16 
4 17 17 17 17 
4 18 18 18 18 
4 19 19 19 19 
4 20 20 20 20 
4 21 21 21 21 
4 22 22 22 22 
4 23 23 23 23 
4 24 24 24 24 
4 25 25 25 25 
4 26 26 26 26 
4 27 27 27 27 
4 28 28 28 28 
4 29 29 29 29 
4 30 30 30 30 
4 31 31 31 31 
4 32 32 32 32 
4 33 33 33 33 
4 34 34 34 34 
4 35 35 35 35 
4 36 36 36 36 
4 37 37 37 37 
4 38 38 38 38 
4 39 39 39 39 
4 40 40 40 40 
4 41 41 41 41 
4 42 42 42 42 
4 43 43 43 43 
4 44 44 44 44 
4 45 45 45 45 
4 46 46 46 46 
4 47 47 47 47 
4 48 48 48 48 
4 49 49 49 49 
4 50 50 50 50 
4 51 51 51 51 
4 52 52 52 52 
4 53 53 53 53 
4 54 54 54 54 
4 55 55 55 55 
4 56 56 56 56 
4 57 57 57 57 
4 58 58 58 58 
4 59 59 59 59 
4 60 60 60 60 
4 61 61 61 61 
4 62 62 62 62 
4 63 63 63 63 

CELL_TYPES 64
10 
10 
10 
10 
10 
10 
10 
10 
10 
10 
10 
10 
10 
10 
10 
10 
10 
10 
10 
10 
10 
10 
10 
10 
10 
10 
10 
10 
10 
10 
10 
10 
10 
10 
10 
10 
10 
10 
10 
10 
10 
10 
10 
10 
10 
10 
10 
10 
10 
10 
10 
10 
10 
10 
10 
10 
10 
10 
10 
10 
10 
10 
10 
10 
POINT_DATA 64
SCALARS GMDS_ID int 1
LOOKUP_TABLE default
0 1 2 3 4 5 6 7 8 9 10 11 12 13 14 15 16 17 18 19 20 21 22 23 24 25 26 27 28 29 30 31 32 33 34 35 36 37 38 39 40 41 42 43 44 45 46 47 48 49 50 51 52 53 54 55 56 57 58 59 60 61 62 63 


