# vtk DataFile Version 3.0
Generated by GMDS VTK Writer

ASCII
DATASET UNSTRUCTURED_GRID
POINTS 216 float
0.6 0.4 0.2
0.2 0.6 0.8
0.6 0.4 0.4
0.4 0.4 0.6
0.6 0.6 0.4
0.6 0.4 0.8
0.8 0.8 0.8
0.2 0.8 0.8
0.2 0.8 1
0.4 0.6 0.6
0.6 0.6 0.2
0.4 0.8 0.8
0.2 0.4 0.8
0.4 0.2 0.4
0.8 0.6 0.4
0.2 1 0.8
0.4 0.8 1
0.2 0.8 0.6
0.4 0.4 0.8
0.6 0.6 0.6
0.6 0.8 0.4
0.2 0.2 1
0.2 0.2 0.8
0.6 0.6 0.8
0 0.8 0.8
0.2 0.6 0.6
0.2 0.6 0.4
0.2 0.8 0.4
0.4 0.8 0.6
0.2 0.4 0.4
0.4 0.8 0.2
0.8 0.8 1
0.6 0.8 0.8
0.4 1 0.8
0 0.6 0.8
0.8 0.6 0.6
0.4 0.6 1
0.4 0.6 0.8
0.4 0.6 0.2
0.4 0.4 1
0.2 0.6 1
0.6 0.8 0.6
0.8 0.8 0.4
0.2 0.4 0.6
0.8 0.4 0.8
0.6 0.2 0.6
0.6 0.8 1
0.4 0.2 1
0.4 0.6 0.4
0.8 0.4 0.2
0.4 0.4 0
0.4 0.4 0.4
0.6 0.4 0
0.8 0.4 0.6
0.4 0.8 0.4
0.4 0.4 0.2
0.6 1 0.8
0.4 1 0.6
0.8 0.6 0.2
1 0.8 0.2
0.6 0.4 1
0.4 0.2 0.6
0.6 0.4 0.6
0.8 1 0.4
1 0.8 0.4
1 0.6 0.4
0.4 0 0.8
0.6 0.2 0.8
0.8 0.8 0.2
0.6 0.2 0.4
0.8 0.8 0.6
0.6 0.6 1
0.6 1 0.4
0.2 0.2 0.4
0.2 0.6 0.2
0.2 1 0.4
0.4 0 0.4
0.2 0.2 0.6
0.8 0.2 0.2
0 0.6 0.6
0.8 0 0.2
0 0.8 0.4
0.8 0.2 0.4
0.8 0.6 1
0.8 0.6 0.8
0.2 0.4 0.2
0.6 0.8 0.2
0.8 0.4 1
0 0.4 0.8
0.2 0.4 1
0.8 0.4 0
0 0.4 0.6
0.4 1 0.4
0.6 0 0.4
1 0.4 0.2
0.8 0.2 0.8
1 0.8 0.8
0 0.6 0.2
0.8 1 0.8
0.6 0.2 0.2
0.4 0.2 0.2
0.4 0.2 0
0.6 0 0.6
0 0.4 0.4
0 0.2 0.8
0.8 0.2 0.6
1 0.4 0.8
0.8 0 0.8
0.6 1 0.6
0.2 0 0.8
0.2 1 0.6
0.2 1 0.2
0.2 0.8 0.2
1 0.2 0.4
0 0.6 0.4
0.6 0.2 0
0.2 0.4 0
1 0.6 0.6
1 0.2 0.6
0.4 0.6 0
0 0.2 0.4
0.6 0.8 0
0.6 0.6 0
0 0.8 0.6
0.6 0.2 1
0.2 0.6 0
0.2 0 0.6
1 0.6 0.2
0 0.4 0.2
0.8 0 0.4
0.6 0 0.2
0.6 0 0.8
0.8 1 0.2
0 0.2 0.6
0.6 1 0.2
0 0.2 0.2
0.4 0 0.6
0.8 0 0.6
1 1 1
0 0 0
0.4 0 0.2
0.4 0.8 0
1 0.6 0.8
0.2 0 0.4
1 0 0
0.8 0.6 0
1 1 0
1 0 1
0.2 0 0.2
0.4 1 0.2
1 0.8 0.6
0.8 0.8 0
-2.45224e-17 1 1
0 1 0
0 0 1
0.8 1 0.6
1 0.2 0.2
0.8 0.2 0
1 0.2 0.8
0.2 0.8 0
0.8 0.2 1
0 0.8 0.2
1 0.8 0
1 0.6 0
0 0.8 1
0 0.6 1
1 0 0.8
1 0 0.6
0.8 0 0
0.6 0 0
1 1 0.8
1 1 0.6
0.2 0 1
0.4 0 1
0.4 1 1
0.2 1 1
0 1 0.4
0 1 0.2
0 0.2 0
1 0.4 0
1 0.2 0
1 0.4 1
1 0.2 1
0.8 0 1
0.6 0 1
1 0.8 1
1 0.6 1
0 0.8 0
0 0.6 0
0.6 1 0
0.8 1 0
0.4 0 0
0.2 0 0
0.4 1 0
0.2 1 0
0 0 0.2
0 0 0.4
0 0.4 1
0 0.2 1
1 0 0.4
1 0 0.2
0 0 0.8
0 0 0.6
1 1 0.2
1 1 0.4
0.8 1 1
0.6 1 1
0 1 0.8
0 1 0.6
1 0.4 0.4
0.8 0.4 0.4
0.2 0.2 0.2
0.2 0.2 0
1 0.4 0.6
0.4 0.2 0.8
0 0.4 -1.45639e-17

CELLS 216 1080
4 0 0 0 0 
4 1 1 1 1 
4 2 2 2 2 
4 3 3 3 3 
4 4 4 4 4 
4 5 5 5 5 
4 6 6 6 6 
4 7 7 7 7 
4 8 8 8 8 
4 9 9 9 9 
4 10 10 10 10 
4 11 11 11 11 
4 12 12 12 12 
4 13 13 13 13 
4 14 14 14 14 
4 15 15 15 15 
4 16 16 16 16 
4 17 17 17 17 
4 18 18 18 18 
4 19 19 19 19 
4 20 20 20 20 
4 21 21 21 21 
4 22 22 22 22 
4 23 23 23 23 
4 24 24 24 24 
4 25 25 25 25 
4 26 26 26 26 
4 27 27 27 27 
4 28 28 28 28 
4 29 29 29 29 
4 30 30 30 30 
4 31 31 31 31 
4 32 32 32 32 
4 33 33 33 33 
4 34 34 34 34 
4 35 35 35 35 
4 36 36 36 36 
4 37 37 37 37 
4 38 38 38 38 
4 39 39 39 39 
4 40 40 40 40 
4 41 41 41 41 
4 42 42 42 42 
4 43 43 43 43 
4 44 44 44 44 
4 45 45 45 45 
4 46 46 46 46 
4 47 47 47 47 
4 48 48 48 48 
4 49 49 49 49 
4 50 50 50 50 
4 51 51 51 51 
4 52 52 52 52 
4 53 53 53 53 
4 54 54 54 54 
4 55 55 55 55 
4 56 56 56 56 
4 57 57 57 57 
4 58 58 58 58 
4 59 59 59 59 
4 60 60 60 60 
4 61 61 61 61 
4 62 62 62 62 
4 63 63 63 63 
4 64 64 64 64 
4 65 65 65 65 
4 66 66 66 66 
4 67 67 67 67 
4 68 68 68 68 
4 69 69 69 69 
4 70 70 70 70 
4 71 71 71 71 
4 72 72 72 72 
4 73 73 73 73 
4 74 74 74 74 
4 75 75 75 75 
4 76 76 76 76 
4 77 77 77 77 
4 78 78 78 78 
4 79 79 79 79 
4 80 80 80 80 
4 81 81 81 81 
4 82 82 82 82 
4 83 83 83 83 
4 84 84 84 84 
4 85 85 85 85 
4 86 86 86 86 
4 87 87 87 87 
4 88 88 88 88 
4 89 89 89 89 
4 90 90 90 90 
4 91 91 91 91 
4 92 92 92 92 
4 93 93 93 93 
4 94 94 94 94 
4 95 95 95 95 
4 96 96 96 96 
4 97 97 97 97 
4 98 98 98 98 
4 99 99 99 99 
4 100 100 100 100 
4 101 101 101 101 
4 102 102 102 102 
4 103 103 103 103 
4 104 104 104 104 
4 105 105 105 105 
4 106 106 106 106 
4 107 107 107 107 
4 108 108 108 108 
4 109 109 109 109 
4 110 110 110 110 
4 111 111 111 111 
4 112 112 112 112 
4 113 113 113 113 
4 114 114 114 114 
4 115 115 115 115 
4 116 116 116 116 
4 117 117 117 117 
4 118 118 118 118 
4 119 119 119 119 
4 120 120 120 120 
4 121 121 121 121 
4 122 122 122 122 
4 123 123 123 123 
4 124 124 124 124 
4 125 125 125 125 
4 126 126 126 126 
4 127 127 127 127 
4 128 128 128 128 
4 129 129 129 129 
4 130 130 130 130 
4 131 131 131 131 
4 132 132 132 132 
4 133 133 133 133 
4 134 134 134 134 
4 135 135 135 135 
4 136 136 136 136 
4 137 137 137 137 
4 138 138 138 138 
4 139 139 139 139 
4 140 140 140 140 
4 141 141 141 141 
4 142 142 142 142 
4 143 143 143 143 
4 144 144 144 144 
4 145 145 145 145 
4 146 146 146 146 
4 147 147 147 147 
4 148 148 148 148 
4 149 149 149 149 
4 150 150 150 150 
4 151 151 151 151 
4 152 152 152 152 
4 153 153 153 153 
4 154 154 154 154 
4 155 155 155 155 
4 156 156 156 156 
4 157 157 157 157 
4 158 158 158 158 
4 159 159 159 159 
4 160 160 160 160 
4 161 161 161 161 
4 162 162 162 162 
4 163 163 163 163 
4 164 164 164 164 
4 165 165 165 165 
4 166 166 166 166 
4 167 167 167 167 
4 168 168 168 168 
4 169 169 169 169 
4 170 170 170 170 
4 171 171 171 171 
4 172 172 172 172 
4 173 173 173 173 
4 174 174 174 174 
4 175 175 175 175 
4 176 176 176 176 
4 177 177 177 177 
4 178 178 178 178 
4 179 179 179 179 
4 180 180 180 180 
4 181 181 181 181 
4 182 182 182 182 
4 183 183 183 183 
4 184 184 184 184 
4 185 185 185 185 
4 186 186 186 186 
4 187 187 187 187 
4 188 188 188 188 
4 189 189 189 189 
4 190 190 190 190 
4 191 191 191 191 
4 192 192 192 192 
4 193 193 193 193 
4 194 194 194 194 
4 195 195 195 195 
4 196 196 196 196 
4 197 197 197 197 
4 198 198 198 198 
4 199 199 199 199 
4 200 200 200 200 
4 201 201 201 201 
4 202 202 202 202 
4 203 203 203 203 
4 204 204 204 204 
4 205 205 205 205 
4 206 206 206 206 
4 207 207 207 207 
4 208 208 208 208 
4 209 209 209 209 
4 210 210 210 210 
4 211 211 211 211 
4 212 212 212 212 
4 213 213 213 213 
4 214 214 214 214 
4 215 215 215 215 

CELL_TYPES 216
10 
10 
10 
10 
10 
10 
10 
10 
10 
10 
10 
10 
10 
10 
10 
10 
10 
10 
10 
10 
10 
10 
10 
10 
10 
10 
10 
10 
10 
10 
10 
10 
10 
10 
10 
10 
10 
10 
10 
10 
10 
10 
10 
10 
10 
10 
10 
10 
10 
10 
10 
10 
10 
10 
10 
10 
10 
10 
10 
10 
10 
10 
10 
10 
10 
10 
10 
10 
10 
10 
10 
10 
10 
10 
10 
10 
10 
10 
10 
10 
10 
10 
10 
10 
10 
10 
10 
10 
10 
10 
10 
10 
10 
10 
10 
10 
10 
10 
10 
10 
10 
10 
10 
10 
10 
10 
10 
10 
10 
10 
10 
10 
10 
10 
10 
10 
10 
10 
10 
10 
10 
10 
10 
10 
10 
10 
10 
10 
10 
10 
10 
10 
10 
10 
10 
10 
10 
10 
10 
10 
10 
10 
10 
10 
10 
10 
10 
10 
10 
10 
10 
10 
10 
10 
10 
10 
10 
10 
10 
10 
10 
10 
10 
10 
10 
10 
10 
10 
10 
10 
10 
10 
10 
10 
10 
10 
10 
10 
10 
10 
10 
10 
10 
10 
10 
10 
10 
10 
10 
10 
10 
10 
10 
10 
10 
10 
10 
10 
10 
10 
10 
10 
10 
10 
10 
10 
10 
10 
10 
10 
10 
10 
10 
10 
10 
10 
POINT_DATA 216
SCALARS GMDS_ID int 1
LOOKUP_TABLE default
0 1 2 3 4 5 6 7 8 9 10 11 12 13 14 15 16 17 18 19 20 21 22 23 24 25 26 27 28 29 30 31 32 33 34 35 36 37 38 39 40 41 42 43 44 45 46 47 48 49 50 51 52 53 54 55 56 57 58 59 60 61 62 63 64 65 66 67 68 69 70 71 72 73 74 75 76 77 78 79 80 81 82 83 84 85 86 87 88 89 90 91 92 93 94 95 96 97 98 99 100 101 102 103 104 105 106 107 108 109 110 111 112 113 114 115 116 117 118 119 120 121 122 123 124 125 126 127 128 129 130 131 132 133 134 135 136 137 138 139 140 141 142 143 144 145 146 147 148 149 150 151 152 153 154 155 156 157 158 159 160 161 162 163 164 165 166 167 168 169 170 171 172 173 174 175 176 177 178 179 180 181 182 183 184 185 186 187 188 189 190 191 192 193 194 195 196 197 198 199 200 201 202 203 204 205 206 207 208 209 210 211 212 213 214 215 


