# vtk DataFile Version 3.0
Generated by GMDS VTK Writer

ASCII
DATASET UNSTRUCTURED_GRID
POINTS 313 float
1 0.2 0
-1 0.2 0
0.993712 0.311964 0
0.974928 0.422521 0
0.943883 0.530279 0
0.900969 0.633884 0
0.846724 0.732032 0
0.781831 0.82349 0
0.707107 0.907107 0
0.62349 0.981831 0
0.532032 1.04672 0
0.433884 1.10097 0
0.330279 1.14388 0
0.222521 1.17493 0
0.111964 1.19371 0
1.31523e-12 1.2 0
-0.111964 1.19371 0
-0.222521 1.17493 0
-0.330279 1.14388 0
-0.433884 1.10097 0
-0.532032 1.04672 0
-0.62349 0.981831 0
-0.707107 0.907107 0
-0.781831 0.82349 0
-0.846724 0.732032 0
-0.900969 0.633884 0
-0.943883 0.530279 0
-0.974928 0.422521 0
-0.993712 0.311964 0
1 0 0
-1 0 0
-0.993712 -0.111964 0
-0.974928 -0.222521 0
-0.943883 -0.330279 0
-0.900969 -0.433884 0
-0.846724 -0.532032 0
-0.781831 -0.62349 0
-0.707107 -0.707107 0
-0.62349 -0.781831 0
-0.532032 -0.846724 0
-0.433884 -0.900969 0
-0.330279 -0.943883 0
-0.222521 -0.974928 0
-0.111964 -0.993712 0
-1.80107e-12 -1 0
0.111964 -0.993712 0
0.222521 -0.974928 0
0.330279 -0.943883 0
0.433884 -0.900969 0
0.532032 -0.846724 0
0.62349 -0.781831 0
0.707107 -0.707107 0
0.781831 -0.62349 0
0.846724 -0.532032 0
0.900969 -0.433884 0
0.943883 -0.330279 0
0.974928 -0.222521 0
0.993712 -0.111964 0
0.5 0.2 0
0.875 0.2 0
0.75 0.2 0
0.625 0.2 0
0.5 0 0
0.5 0.15 0
0.5 0.1 0
0.5 0.05 0
0.625 0 0
0.75 0 0
0.875 0 0
-0.5 0.2 0
-0.875 0.2 0
-0.75 0.2 0
-0.625 0.2 0
-0.5 0 0
-0.5 0.15 0
-0.5 0.1 0
-0.5 0.05 0
-0.625 0 0
-0.75 0 0
-0.875 0 0
0.171157 0.721087 0
-0.161688 -0.536212 0
-0.0297387 0.222208 0
0.0572237 -0.156188 0
0.373275 -0.470194 0
-0.376237 0.651319 0
0.546882 0.636206 0
-0.541457 -0.437793 0
0.194257 1.00162 0
-0.0488253 0.943378 0
-0.191932 -0.805399 0
0.0513781 -0.751659 0
0.322146 0.463922 0
0.0609888 0.459966 0
0.266363 0.254593 0
-0.295274 -0.284245 0
-0.0345116 -0.306249 0
-0.162853 -0.109789 0
0.623185 -0.439917 0
0.523973 -0.652795 0
-0.626227 0.63186 0
-0.524901 0.84676 0
0.673442 0.630318 0
0.572269 0.764263 0
-0.670777 -0.431391 0
-0.569096 -0.565176 0
-0.249929 0.0758866 0
-0.329025 0.245072 0
0.0191585 0.00373318 0
-0.413958 -0.461798 0
-0.521651 -0.308352 0
-0.290652 0.896551 0
-0.121737 0.681181 0
-0.460856 0.430091 0
-0.213011 0.444914 0
0.422071 0.655924 0
0.529612 0.503792 0
0.291204 -0.706037 0
0.126239 -0.505129 0
0.444485 -0.252323 0
0.247124 -0.101107 0
0.205553 -0.292761 0
-0.719859 -0.233605 0
0.700224 -0.223993 0
-0.703571 0.419133 0
0.721542 0.432483 0
-0.397503 -0.67294 0
0.400755 0.869401 0
0.250747 0.079389 0
0.179858 0.876258 0
0.0743038 0.969696 0
0.0508291 0.835347 0
0.0946254 1.09093 0
-0.0220898 1.07516 0
0.210963 1.10792 0
-0.138418 1.05647 0
-0.174888 -0.684035 0
-0.0712497 -0.775514 0
-0.0460737 -0.648337 0
-0.093366 -0.89316 0
0.0232521 -0.878754 0
-0.210186 -0.909232 0
0.139656 -0.860455 0
0.408608 0.35282 0
0.289813 0.354645 0
0.39067 0.246327 0
0.197083 0.464935 0
0.159391 0.353183 0
0.246257 0.580035 0
0.108732 0.581708 0
0.0188014 0.345262 0
0.131187 0.247046 0
-0.377551 -0.169046 0
-0.235043 -0.189541 0
-0.308377 -0.0747173 0
-0.164052 -0.298605 0
-0.103023 -0.209525 0
-0.227917 -0.399662 0
-0.0913746 -0.409793 0
0.015786 -0.220554 0
-0.0383325 -0.137175 0
0.646613 -0.63208 0
0.584825 -0.731424 0
0.70538 -0.534122 0
0.574737 -0.545619 0
0.75716 -0.433667 0
0.495886 -0.453175 0
0.451604 -0.563756 0
-0.647226 0.828992 0
-0.585152 0.929292 0
-0.706539 0.730454 0
-0.576924 0.737724 0
-0.758753 0.629969 0
-0.499673 0.639934 0
-0.453346 0.752347 0
0.592494 0.633391 0
0.631935 0.704517 0
0.555695 0.683129 0
0.730051 0.719595 0
0.669569 0.797333 0
0.777876 0.630913 0
0.595871 0.865732 0
-0.587931 -0.434464 0
-0.628968 -0.505256 0
-0.551011 -0.48438 0
-0.728836 -0.520152 0
-0.668082 -0.597722 0
-0.776789 -0.431628 0
-0.594172 -0.666298 0
-0.405316 0.164366 0
-0.435827 0.235697 0
-0.383358 0.0958527 0
-0.285034 0.160464 0
-0.359199 0.0226056 0
-0.14611 0.140709 0
-0.197243 0.241083 0
0.0400954 -0.0845733 0
-0.0777731 -0.0486039 0
-0.111747 0.043595 0
-0.21209 -0.0139706 0
-0.00308138 0.100633 0
-0.496339 -0.44504 0
-0.455695 -0.377816 0
-0.53428 -0.393289 0
-0.351945 -0.381616 0
-0.418121 -0.282999 0
-0.305606 -0.491361 0
-0.507714 -0.190584 0
-0.365322 1.00157 0
-0.253325 1.03203 0
-0.475035 0.965867 0
-0.407595 0.871405 0
-0.332007 0.770314 0
-0.250482 0.666228 0
-0.208328 0.790402 0
-0.0814119 0.810691 0
-0.170803 0.920841 0
0.0156307 0.699646 0
-0.419722 0.53911 0
-0.34059 0.438663 0
-0.294881 0.549207 0
-0.387471 0.334465 0
-0.265957 0.339587 0
-0.494505 0.321957 0
-0.127907 0.33999 0
-0.165681 0.559711 0
-0.0769632 0.452761 0
-0.0308929 0.571318 0
0.502586 0.641951 0
0.46516 0.571511 0
0.54057 0.590196 0
0.366463 0.570112 0
0.434005 0.472741 0
0.315773 0.680999 0
0.517569 0.384997 0
0.365492 -0.805839 0
0.253886 -0.836608 0
0.474709 -0.769427 0
0.407162 -0.679655 0
0.33157 -0.584776 0
0.250734 -0.489024 0
0.210585 -0.605538 0
0.0852115 -0.625782 0
0.172312 -0.730565 0
-0.00717549 -0.520994 0
0.411167 -0.36138 0
0.322588 -0.274639 0
0.289126 -0.379873 0
0.348335 -0.169955 0
0.232361 -0.196646 0
0.471723 -0.139117 0
0.365685 -0.0648787 0
0.140425 -0.132485 0
0.123866 -0.216269 0
0.1679 -0.395052 0
0.0874615 -0.305099 0
0.0419581 -0.406166 0
-0.735876 -0.116844 0
-0.616659 -0.133081 0
-0.86191 -0.112549 0
-0.841742 -0.224533 0
-0.813831 -0.332142 0
-0.60408 -0.360447 0
-0.611555 -0.260328 0
-0.699446 -0.340839 0
0.834734 -0.221365 0
0.800623 -0.329209 0
0.859494 -0.11124 0
0.728291 -0.112114 0
0.599564 -0.117606 0
0.664994 -0.333747 0
0.56994 -0.234504 0
0.535343 -0.345342 0
-0.835755 0.419781 0
-0.802036 0.526493 0
-0.859894 0.310708 0
-0.72987 0.310089 0
-0.60521 0.311933 0
-0.66897 0.52648 0
-0.579368 0.423049 0
-0.542658 0.531379 0
0.736577 0.316336 0
0.61934 0.331347 0
0.862053 0.312404 0
0.842188 0.423969 0
0.81463 0.53153 0
0.616263 0.45775 0
0.701954 0.539826 0
0.608669 0.558132 0
-0.412654 -0.78766 0
-0.508185 -0.728766 0
-0.311985 -0.846233 0
-0.295554 -0.734102 0
-0.287943 -0.612807 0
-0.49126 -0.619101 0
-0.396438 -0.562792 0
-0.48595 -0.522605 0
0.414151 0.985795 0
0.509797 0.927525 0
0.313344 1.04446 0
0.298126 0.929054 0
0.293361 0.804746 0
0.493863 0.816641 0
0.401217 0.757101 0
0.489961 0.719287 0
0.376369 0.0984279 0
0.374182 0.0264153 0
0.380914 0.168723 0
0.253918 0.165089 0
0.121401 0.143747 0
0.251222 -0.00885314 0
0.12961 0.0465314 0
0.138326 -0.0450694 0

CELLS 544 2176
3 80 129 131 
3 129 130 131 
3 129 88 130 
3 131 130 89 
3 88 132 130 
3 132 133 130 
3 132 15 133 
3 130 133 89 
3 88 134 132 
3 134 14 132 
3 134 13 14 
3 132 14 15 
3 89 133 135 
3 133 16 135 
3 133 15 16 
3 135 16 17 
3 81 136 138 
3 136 137 138 
3 136 90 137 
3 138 137 91 
3 90 139 137 
3 139 140 137 
3 139 44 140 
3 137 140 91 
3 90 141 139 
3 141 43 139 
3 141 42 43 
3 139 43 44 
3 91 140 142 
3 140 45 142 
3 140 44 45 
3 142 45 46 
3 58 143 145 
3 143 144 145 
3 143 92 144 
3 145 144 94 
3 92 146 144 
3 146 147 144 
3 146 93 147 
3 144 147 94 
3 92 148 146 
3 148 149 146 
3 148 80 149 
3 146 149 93 
3 94 147 151 
3 147 150 151 
3 147 93 150 
3 151 150 82 
3 73 152 154 
3 152 153 154 
3 152 95 153 
3 154 153 97 
3 95 155 153 
3 155 156 153 
3 155 96 156 
3 153 156 97 
3 95 157 155 
3 157 158 155 
3 157 81 158 
3 155 158 96 
3 97 156 160 
3 156 159 160 
3 156 96 159 
3 160 159 83 
3 50 51 162 
3 51 161 162 
3 51 52 161 
3 162 161 99 
3 52 163 161 
3 163 164 161 
3 163 98 164 
3 161 164 99 
3 52 53 163 
3 53 165 163 
3 53 54 165 
3 163 165 98 
3 99 164 167 
3 164 166 167 
3 164 98 166 
3 167 166 84 
3 21 22 169 
3 22 168 169 
3 22 23 168 
3 169 168 101 
3 23 170 168 
3 170 171 168 
3 170 100 171 
3 168 171 101 
3 23 24 170 
3 24 172 170 
3 24 25 172 
3 170 172 100 
3 101 171 174 
3 171 173 174 
3 171 100 173 
3 174 173 85 
3 86 175 177 
3 175 176 177 
3 175 102 176 
3 177 176 103 
3 102 178 176 
3 178 179 176 
3 178 7 179 
3 176 179 103 
3 102 180 178 
3 180 6 178 
3 180 5 6 
3 178 6 7 
3 103 179 181 
3 179 8 181 
3 179 7 8 
3 181 8 9 
3 87 182 184 
3 182 183 184 
3 182 104 183 
3 184 183 105 
3 104 185 183 
3 185 186 183 
3 185 36 186 
3 183 186 105 
3 104 187 185 
3 187 35 185 
3 187 34 35 
3 185 35 36 
3 105 186 188 
3 186 37 188 
3 186 36 37 
3 188 37 38 
3 69 74 190 
3 74 189 190 
3 74 75 189 
3 190 189 107 
3 75 191 189 
3 191 192 189 
3 191 106 192 
3 189 192 107 
3 75 76 191 
3 76 193 191 
3 76 73 193 
3 191 193 106 
3 107 192 195 
3 192 194 195 
3 192 106 194 
3 195 194 82 
3 83 196 160 
3 196 197 160 
3 196 108 197 
3 160 197 97 
3 108 198 197 
3 198 199 197 
3 198 106 199 
3 197 199 97 
3 108 200 198 
3 200 194 198 
3 200 82 194 
3 198 194 106 
3 97 199 154 
3 199 193 154 
3 199 106 193 
3 154 193 73 
3 87 201 203 
3 201 202 203 
3 201 109 202 
3 203 202 110 
3 109 204 202 
3 204 205 202 
3 204 95 205 
3 202 205 110 
3 109 206 204 
3 206 157 204 
3 206 81 157 
3 204 157 95 
3 110 205 207 
3 205 152 207 
3 205 95 152 
3 207 152 73 
3 17 18 209 
3 18 208 209 
3 18 19 208 
3 209 208 111 
3 19 210 208 
3 210 211 208 
3 210 101 211 
3 208 211 111 
3 19 20 210 
3 20 169 210 
3 20 21 169 
3 210 169 101 
3 111 211 212 
3 211 174 212 
3 211 101 174 
3 212 174 85 
3 85 213 212 
3 213 214 212 
3 213 112 214 
3 212 214 111 
3 112 215 214 
3 215 216 214 
3 215 89 216 
3 214 216 111 
3 112 217 215 
3 217 131 215 
3 217 80 131 
3 215 131 89 
3 111 216 209 
3 216 135 209 
3 216 89 135 
3 209 135 17 
3 85 218 220 
3 218 219 220 
3 218 113 219 
3 220 219 114 
3 113 221 219 
3 221 222 219 
3 221 107 222 
3 219 222 114 
3 113 223 221 
3 223 190 221 
3 223 69 190 
3 221 190 107 
3 114 222 224 
3 222 195 224 
3 222 107 195 
3 224 195 82 
3 85 220 213 
3 220 225 213 
3 220 114 225 
3 213 225 112 
3 114 226 225 
3 226 227 225 
3 226 93 227 
3 225 227 112 
3 114 224 226 
3 224 150 226 
3 224 82 150 
3 226 150 93 
3 112 227 217 
3 227 149 217 
3 227 93 149 
3 217 149 80 
3 86 228 230 
3 228 229 230 
3 228 115 229 
3 230 229 116 
3 115 231 229 
3 231 232 229 
3 231 92 232 
3 229 232 116 
3 115 233 231 
3 233 148 231 
3 233 80 148 
3 231 148 92 
3 116 232 234 
3 232 143 234 
3 232 92 143 
3 234 143 58 
3 46 47 236 
3 47 235 236 
3 47 48 235 
3 236 235 117 
3 48 237 235 
3 237 238 235 
3 237 99 238 
3 235 238 117 
3 48 49 237 
3 49 162 237 
3 49 50 162 
3 237 162 99 
3 117 238 239 
3 238 167 239 
3 238 99 167 
3 239 167 84 
3 84 240 239 
3 240 241 239 
3 240 118 241 
3 239 241 117 
3 118 242 241 
3 242 243 241 
3 242 91 243 
3 241 243 117 
3 118 244 242 
3 244 138 242 
3 244 81 138 
3 242 138 91 
3 117 243 236 
3 243 142 236 
3 243 91 142 
3 236 142 46 
3 84 245 247 
3 245 246 247 
3 245 119 246 
3 247 246 121 
3 119 248 246 
3 248 249 246 
3 248 120 249 
3 246 249 121 
3 119 250 248 
3 250 251 248 
3 250 62 251 
3 248 251 120 
3 121 249 253 
3 249 252 253 
3 249 120 252 
3 253 252 83 
3 84 247 240 
3 247 254 240 
3 247 121 254 
3 240 254 118 
3 121 255 254 
3 255 256 254 
3 255 96 256 
3 254 256 118 
3 121 253 255 
3 253 159 255 
3 253 83 159 
3 255 159 96 
3 118 256 244 
3 256 158 244 
3 256 96 158 
3 244 158 81 
3 73 77 258 
3 77 257 258 
3 77 78 257 
3 258 257 122 
3 78 259 257 
3 259 260 257 
3 259 32 260 
3 257 260 122 
3 78 79 259 
3 79 31 259 
3 79 30 31 
3 259 31 32 
3 122 260 261 
3 260 33 261 
3 260 32 33 
3 261 33 34 
3 87 203 182 
3 203 262 182 
3 203 110 262 
3 182 262 104 
3 110 263 262 
3 263 264 262 
3 263 122 264 
3 262 264 104 
3 110 207 263 
3 207 258 263 
3 207 73 258 
3 263 258 122 
3 104 264 187 
3 264 261 187 
3 264 122 261 
3 187 261 34 
3 54 55 266 
3 55 265 266 
3 55 56 265 
3 266 265 123 
3 56 267 265 
3 267 268 265 
3 267 67 268 
3 265 268 123 
3 56 57 267 
3 57 68 267 
3 57 29 68 
3 267 68 67 
3 123 268 269 
3 268 66 269 
3 268 67 66 
3 269 66 62 
3 54 266 165 
3 266 270 165 
3 266 123 270 
3 165 270 98 
3 123 271 270 
3 271 272 270 
3 271 119 272 
3 270 272 98 
3 123 269 271 
3 269 250 271 
3 269 62 250 
3 271 250 119 
3 98 272 166 
3 272 245 166 
3 272 119 245 
3 166 245 84 
3 25 26 274 
3 26 273 274 
3 26 27 273 
3 274 273 124 
3 27 275 273 
3 275 276 273 
3 275 71 276 
3 273 276 124 
3 27 28 275 
3 28 70 275 
3 28 1 70 
3 275 70 71 
3 124 276 277 
3 276 72 277 
3 276 71 72 
3 277 72 69 
3 25 274 172 
3 274 278 172 
3 274 124 278 
3 172 278 100 
3 124 279 278 
3 279 280 278 
3 279 113 280 
3 278 280 100 
3 124 277 279 
3 277 223 279 
3 277 69 223 
3 279 223 113 
3 100 280 173 
3 280 218 173 
3 280 113 218 
3 173 218 85 
3 58 61 282 
3 61 281 282 
3 61 60 281 
3 282 281 125 
3 60 283 281 
3 283 284 281 
3 283 3 284 
3 281 284 125 
3 60 59 283 
3 59 2 283 
3 59 0 2 
3 283 2 3 
3 125 284 285 
3 284 4 285 
3 284 3 4 
3 285 4 5 
3 58 282 234 
3 282 286 234 
3 282 125 286 
3 234 286 116 
3 125 287 286 
3 287 288 286 
3 287 102 288 
3 286 288 116 
3 125 285 287 
3 285 180 287 
3 285 5 180 
3 287 180 102 
3 116 288 230 
3 288 175 230 
3 288 102 175 
3 230 175 86 
3 38 39 290 
3 39 289 290 
3 39 40 289 
3 290 289 126 
3 40 291 289 
3 291 292 289 
3 291 90 292 
3 289 292 126 
3 40 41 291 
3 41 141 291 
3 41 42 141 
3 291 141 90 
3 126 292 293 
3 292 136 293 
3 292 90 136 
3 293 136 81 
3 38 290 188 
3 290 294 188 
3 290 126 294 
3 188 294 105 
3 126 295 294 
3 295 296 294 
3 295 109 296 
3 294 296 105 
3 126 293 295 
3 293 206 295 
3 293 81 206 
3 295 206 109 
3 105 296 184 
3 296 201 184 
3 296 109 201 
3 184 201 87 
3 9 10 298 
3 10 297 298 
3 10 11 297 
3 298 297 127 
3 11 299 297 
3 299 300 297 
3 299 88 300 
3 297 300 127 
3 11 12 299 
3 12 134 299 
3 12 13 134 
3 299 134 88 
3 127 300 301 
3 300 129 301 
3 300 88 129 
3 301 129 80 
3 9 298 181 
3 298 302 181 
3 298 127 302 
3 181 302 103 
3 127 303 302 
3 303 304 302 
3 303 115 304 
3 302 304 103 
3 127 301 303 
3 301 233 303 
3 301 80 233 
3 303 233 115 
3 103 304 177 
3 304 228 177 
3 304 115 228 
3 177 228 86 
3 62 65 306 
3 65 305 306 
3 65 64 305 
3 306 305 128 
3 64 307 305 
3 307 308 305 
3 307 94 308 
3 305 308 128 
3 64 63 307 
3 63 145 307 
3 63 58 145 
3 307 145 94 
3 128 308 309 
3 308 151 309 
3 308 94 151 
3 309 151 82 
3 62 306 251 
3 306 310 251 
3 306 128 310 
3 251 310 120 
3 128 311 310 
3 311 312 310 
3 311 108 312 
3 310 312 120 
3 128 309 311 
3 309 200 311 
3 309 82 200 
3 311 200 108 
3 120 312 252 
3 312 196 252 
3 312 108 196 
3 252 196 83 

CELL_TYPES 544
5 
5 
5 
5 
5 
5 
5 
5 
5 
5 
5 
5 
5 
5 
5 
5 
5 
5 
5 
5 
5 
5 
5 
5 
5 
5 
5 
5 
5 
5 
5 
5 
5 
5 
5 
5 
5 
5 
5 
5 
5 
5 
5 
5 
5 
5 
5 
5 
5 
5 
5 
5 
5 
5 
5 
5 
5 
5 
5 
5 
5 
5 
5 
5 
5 
5 
5 
5 
5 
5 
5 
5 
5 
5 
5 
5 
5 
5 
5 
5 
5 
5 
5 
5 
5 
5 
5 
5 
5 
5 
5 
5 
5 
5 
5 
5 
5 
5 
5 
5 
5 
5 
5 
5 
5 
5 
5 
5 
5 
5 
5 
5 
5 
5 
5 
5 
5 
5 
5 
5 
5 
5 
5 
5 
5 
5 
5 
5 
5 
5 
5 
5 
5 
5 
5 
5 
5 
5 
5 
5 
5 
5 
5 
5 
5 
5 
5 
5 
5 
5 
5 
5 
5 
5 
5 
5 
5 
5 
5 
5 
5 
5 
5 
5 
5 
5 
5 
5 
5 
5 
5 
5 
5 
5 
5 
5 
5 
5 
5 
5 
5 
5 
5 
5 
5 
5 
5 
5 
5 
5 
5 
5 
5 
5 
5 
5 
5 
5 
5 
5 
5 
5 
5 
5 
5 
5 
5 
5 
5 
5 
5 
5 
5 
5 
5 
5 
5 
5 
5 
5 
5 
5 
5 
5 
5 
5 
5 
5 
5 
5 
5 
5 
5 
5 
5 
5 
5 
5 
5 
5 
5 
5 
5 
5 
5 
5 
5 
5 
5 
5 
5 
5 
5 
5 
5 
5 
5 
5 
5 
5 
5 
5 
5 
5 
5 
5 
5 
5 
5 
5 
5 
5 
5 
5 
5 
5 
5 
5 
5 
5 
5 
5 
5 
5 
5 
5 
5 
5 
5 
5 
5 
5 
5 
5 
5 
5 
5 
5 
5 
5 
5 
5 
5 
5 
5 
5 
5 
5 
5 
5 
5 
5 
5 
5 
5 
5 
5 
5 
5 
5 
5 
5 
5 
5 
5 
5 
5 
5 
5 
5 
5 
5 
5 
5 
5 
5 
5 
5 
5 
5 
5 
5 
5 
5 
5 
5 
5 
5 
5 
5 
5 
5 
5 
5 
5 
5 
5 
5 
5 
5 
5 
5 
5 
5 
5 
5 
5 
5 
5 
5 
5 
5 
5 
5 
5 
5 
5 
5 
5 
5 
5 
5 
5 
5 
5 
5 
5 
5 
5 
5 
5 
5 
5 
5 
5 
5 
5 
5 
5 
5 
5 
5 
5 
5 
5 
5 
5 
5 
5 
5 
5 
5 
5 
5 
5 
5 
5 
5 
5 
5 
5 
5 
5 
5 
5 
5 
5 
5 
5 
5 
5 
5 
5 
5 
5 
5 
5 
5 
5 
5 
5 
5 
5 
5 
5 
5 
5 
5 
5 
5 
5 
5 
5 
5 
5 
5 
5 
5 
5 
5 
5 
5 
5 
5 
5 
5 
5 
5 
5 
5 
5 
5 
5 
5 
5 
5 
5 
5 
5 
5 
5 
5 
5 
5 
5 
5 
5 
5 
5 
5 
5 
5 
5 
5 
5 
5 
5 
5 
5 
5 
5 
5 
5 
5 
5 
5 
5 
5 
5 
5 
5 
5 
5 
5 
5 
5 
5 
5 
5 
5 
5 
5 
5 
5 
5 
5 
5 
5 
5 
5 
5 
5 
5 
5 
5 
5 
5 
5 
5 
5 
5 
5 
5 
5 
POINT_DATA 313
SCALARS GMDS_ID int 1
LOOKUP_TABLE default
0 1 2 3 4 5 6 7 8 9 10 11 12 13 14 15 16 17 18 19 20 21 22 23 24 25 26 27 28 29 30 31 32 33 34 35 36 37 38 39 40 41 42 43 44 45 46 47 48 49 50 51 52 53 54 55 56 57 58 59 60 61 62 63 64 65 66 67 68 69 70 71 72 73 74 75 76 77 78 79 80 81 82 83 84 85 86 87 88 89 90 91 92 93 94 95 96 97 98 99 100 101 102 103 104 105 106 107 108 109 110 111 112 113 114 115 116 117 118 119 120 121 122 123 124 125 126 127 128 129 130 131 132 133 134 135 136 137 138 139 140 141 142 143 144 145 146 147 148 149 150 151 152 153 154 155 156 157 158 159 160 161 162 163 164 165 166 167 168 169 170 171 172 173 174 175 176 177 178 179 180 181 182 183 184 185 186 187 188 189 190 191 192 193 194 195 196 197 198 199 200 201 202 203 204 205 206 207 208 209 210 211 212 213 214 215 216 217 218 219 220 221 222 223 224 225 226 227 228 229 230 231 232 233 234 235 236 237 238 239 240 241 242 243 244 245 246 247 248 249 250 251 252 253 254 255 256 257 258 259 260 261 262 263 264 265 266 267 268 269 270 271 272 273 274 275 276 277 278 279 280 281 282 283 284 285 286 287 288 289 290 291 292 293 294 295 296 297 298 299 300 301 302 303 304 305 306 307 308 309 310 311 312 
SCALARS angle float 1
LOOKUP_TABLE default
0 0 0.448799 0.897598 1.3464 1.7952 2.24399 2.69279 3.14159 3.59039 4.03919 4.48799 4.93679 5.38559 5.83439 0 0.448799 0.897598 1.3464 1.7952 2.24399 2.69279 3.14159 3.59039 4.03919 4.48799 4.93679 5.38559 5.83439 0 0 0.448799 0.897598 1.3464 1.7952 2.24399 2.69279 3.14159 3.59039 4.03919 4.48799 4.93679 5.38559 5.83439 -0 0.448799 0.897598 1.3464 1.7952 2.24399 2.69279 3.14159 3.59039 4.03919 4.48799 4.93679 5.38559 5.83439 0 0 0 0 0 0 0 0 0 0 0 0 0 0 0 0 0 0 0 0 0 0 6.04806 5.99638 0.00523339 0.0058842 0.311379 0.194131 1.1902 1.56688 5.55417 0.0581289 5.53791 0.0700876 0.0364758 6.27814 0.0154459 0.0215726 6.27201 0.00978458 5.31447 2.43447 5.41372 2.42699 1.8961 2.94175 1.99376 2.98503 0.00506374 6.27785 0.00576568 6.17478 0.43058 1.05335 0.0909718 6.22003 0.0140783 6.26435 0.349441 1.13615 0.125676 6.22066 0.000110505 0.0318935 0.699705 5.93046 5.94726 0.65747 4.74261 4.82898 0.00515844 5.75279 5.96237 6.10077 5.86519 0.0107455 5.43167 0.506221 5.71423 5.95663 6.08608 5.86601 0.0167561 5.42691 0.524509 0.0557534 0.0266262 0.0208218 6.27941 0.00786073 6.22237 6.23278 0.00445205 0.00808071 0.0688224 0.0168944 0.0256993 6.26033 6.28224 6.17947 6.21213 0.00359403 0.00449772 3.19308 2.62764 4.15913 3.09357 4.78637 0.0163829 1.49132 3.23627 2.63129 4.19699 3.39584 4.81035 6.22444 1.16118 1.62899 2.4567 2.10461 2.42328 2.84418 1.85164 3.3781 1.86444 2.5201 2.37174 2.44275 2.85706 1.88425 3.37983 6.2807 6.27491 0.0017104 0.000637255 0.00602442 0.004328 0.001726 0.00542909 0.00674741 0.00648428 0.0106056 0.00582126 0.909497 0.282781 0.915548 6.27686 0.145389 5.94554 0.186344 1.67325 0.951569 2.18803 1.75542 0.703229 0.189373 0.379798 0.100886 0.478772 6.2335 6.26119 6.27459 0.050589 6.26381 6.28111 6.24529 0.00526288 0.0485041 0.00975001 0.00380596 0.607131 0.238563 0.697537 0.0269669 0.126596 6.04536 0.151954 1.69192 0.971499 2.19433 1.8238 0.8826 0.267961 0.462896 0.125521 0.523112 6.22847 0.00823173 0.0080625 0.0938039 6.26844 0.00704444 6.23918 6.27369 0.00581885 0.0116097 0.0780823 0.0181492 0.00969553 0.283331 0.226199 0.587996 0.917285 1.39151 1.12342 0.560345 1.28784 5.69751 5.18853 6.12638 6.16044 6.17944 5.66167 6.09337 6.05508 5.70559 5.2254 6.12598 6.16311 6.17881 5.70572 6.10754 6.0679 0.27474 0.213284 0.579928 0.899561 1.35452 0.486271 1.19253 0.942453 4.63585 3.89926 5.07746 5.21182 5.51579 3.77718 5.21586 3.29899 4.65644 3.91113 5.09194 5.25919 5.6195 3.83426 5.4948 2.88409 0.00412747 6.28302 0.00899511 0.00920136 0.00680139 0.00170349 0.0053723 0.00449275 
VECTORS cross_X float
1 0 0 1 0 0 0.993712 0.111964 0 0.974928 0.222521 0 0.943883 0.330279 0 0.900969 0.433884 0 0.846724 0.532032 0 0.781831 0.62349 0 0.707107 0.707107 0 0.62349 0.781831 0 0.532032 0.846724 0 0.433884 0.900969 0 0.330279 0.943883 0 0.222521 0.974928 0 0.111964 0.993712 0 1 0 0 0.993712 0.111964 0 0.974928 0.222521 0 0.943883 0.330279 0 0.900969 0.433884 0 0.846724 0.532032 0 0.781831 0.62349 0 0.707107 0.707107 0 0.62349 0.781831 0 0.532032 0.846724 0 0.433884 0.900969 0 0.330279 0.943883 0 0.222521 0.974928 0 0.111964 0.993712 0 1 0 0 1 0 0 0.993712 0.111964 0 0.974928 0.222521 0 0.943883 0.330279 0 0.900969 0.433884 0 0.846724 0.532032 0 0.781831 0.62349 0 0.707107 0.707107 0 0.62349 0.781831 0 0.532032 0.846724 0 0.433884 0.900969 0 0.330279 0.943883 0 0.222521 0.974928 0 0.111964 0.993712 0 1 0 0 0.993712 0.111964 0 0.974928 0.222521 0 0.943883 0.330279 0 0.900969 0.433884 0 0.846724 0.532032 0 0.781831 0.62349 0 0.707107 0.707107 0 0.62349 0.781831 0 0.532032 0.846724 0 0.433884 0.900969 0 0.330279 0.943883 0 0.222521 0.974928 0 0.111964 0.993712 0 1 0 0 1 0 0 1 0 0 1 0 0 1 0 0 1 0 0 1 0 0 1 0 0 1 0 0 1 0 0 1 0 0 1 0 0 1 0 0 1 0 0 1 0 0 1 0 0 1 0 0 1 0 0 1 0 0 1 0 0 1 0 0 1 0 0 0.0587462 0.998273 0 0.0716389 0.997431 0 0.999999 0.00130835 0 0.999999 0.00147105 0 0.996972 0.0777662 0 0.998823 0.0485136 0 0.956058 0.293178 0 0.924253 0.38178 0 0.181246 0.983438 0 0.999894 0.0145317 0 0.185243 0.982693 0 0.999846 0.017521 0 0.999958 0.00911882 0 0.00126239 0.999999 0 0.999993 0.00386147 0 0.999985 0.00539312 0 0.00279296 0.999996 0 0.999997 0.00244614 0 0.239817 0.970818 0 0.820439 0.571734 0 0.215658 0.976469 0 0.821507 0.570199 0 0.889738 0.456472 0 0.741538 0.670911 0 0.87833 0.478055 0 0.734235 0.678895 0 0.999999 0.00126593 0 0.00133454 0.999999 0 0.999999 0.00144142 0 0.0270975 0.999633 0 0.994212 0.107437 0 0.965526 0.260305 0 0.999741 0.022741 0 0.0157894 0.999875 0 0.999994 0.00351956 0 0.00470859 0.999989 0 0.996187 0.0872492 0 0.959932 0.280235 0 0.999506 0.0314139 0 0.0156318 0.999878 0 1 2.76262e-05 0 0.999968 0.00797329 0 0.984739 0.174035 0 0.0880679 0.996114 0 0.0838832 0.996476 0 0.986522 0.163628 0 0.375692 0.926744 0 0.355595 0.93464 0 0.999999 0.00128961 0 0.132211 0.991222 0 0.0801168 0.996785 0 0.0455881 0.99896 0 0.104308 0.994545 0 0.999996 0.00268638 0 0.211274 0.977427 0 0.992003 0.126218 0 0.141759 0.989901 0 0.0815483 0.996669 0 0.049257 0.998786 0 0.104104 0.994566 0 0.999991 0.00418901 0 0.212437 0.977175 0 0.991415 0.130752 0 0.999903 0.0139379 0 0.999978 0.00665651 0 0.999986 0.00520543 0 0.000943406 1 0 0.999998 0.00196518 0 0.0152027 0.999884 0 0.0125999 0.999921 0 0.999999 0.00111301 0 0.999998 0.00202018 0 0.999852 0.0172047 0 0.999991 0.00422359 0 0.999979 0.00642478 0 0.00571283 0.999984 0 0.000236243 1 0 0.0259256 0.999664 0 0.0177632 0.999842 0 1 0.000898507 0 0.999999 0.00112443 0 0.697946 0.71615 0 0.791882 0.610674 0 0.506407 0.862294 0 0.715545 0.698566 0 0.365532 0.930799 0 0.999992 0.00409571 0 0.9313 0.364254 0 0.690174 0.723644 0 0.791326 0.611395 0 0.498223 0.867049 0 0.660765 0.750593 0 0.359945 0.932973 0 0.0146849 0.999892 0 0.95816 0.286234 0 0.918214 0.396084 0 0.81725 0.576284 0 0.864745 0.502211 0 0.822036 0.569436 0 0.757681 0.652625 0 0.894757 0.446554 0 0.664087 0.747655 0 0.893323 0.449414 0 0.808013 0.589164 0 0.829304 0.558798 0 0.819255 0.57343 0 0.755575 0.655062 0 0.891086 0.453834 0 0.663763 0.747943 0 0.000620842 1 0 0.0020692 0.999998 0 1 0.000427599 0 1 0.000159314 0 0.999999 0.0015061 0 0.999999 0.001082 0 1 0.0004315 0 0.999999 0.00135727 0 0.999999 0.00168685 0 0.999999 0.00162107 0 0.999996 0.00265139 0 0.999999 0.00145532 0 0.974262 0.22542 0 0.997502 0.0706364 0 0.97392 0.226894 0 0.00158103 0.999999 0 0.99934 0.0363392 0 0.0843107 0.99644 0 0.998915 0.0465691 0 0.913776 0.406218 0 0.971837 0.235655 0 0.854085 0.520134 0 0.905239 0.424903 0 0.984586 0.174903 0 0.99888 0.0473256 0 0.995496 0.0948068 0 0.999682 0.0252189 0 0.992845 0.119407 0 0.0124215 0.999923 0 0.00549822 0.999985 0 0.00214855 0.999998 0 0.99992 0.0126469 0 0.00484396 0.999988 0 0.000517811 1 0 0.00947248 0.999955 0 0.999999 0.00131572 0 0.999926 0.0121257 0 0.999997 0.0024375 0 1 0.00095149 0 0.988503 0.151201 0 0.998222 0.0596055 0 0.984834 0.173502 0 0.999977 0.00674168 0 0.999499 0.0316437 0 0.0594215 0.998233 0 0.999279 0.0379795 0 0.91187 0.410479 0 0.970651 0.240494 0 0.853264 0.521479 0 0.897843 0.440316 0 0.975755 0.218864 0 0.997757 0.0669402 0 0.993311 0.115466 0 0.999508 0.0313751 0 0.991461 0.130406 0 0.0136775 0.999906 0 0.999998 0.00205793 0 0.999998 0.00201562 0 0.999725 0.0234488 0 0.00368744 0.999993 0 0.999998 0.00176111 0 0.0110016 0.999939 0 0.00237295 0.999997 0 0.999999 0.00145471 0 0.999996 0.00290242 0 0.999809 0.0195193 0 0.99999 0.00453728 0 0.999997 0.00242388 0 0.997492 0.0707736 0 0.998401 0.0565195 0 0.989215 0.14647 0 0.973821 0.227317 0 0.940098 0.340904 0 0.960819 0.277178 0 0.990204 0.139628 0 0.948617 0.316428 0 0.145896 0.9893 0 0.27026 0.962787 0 0.0391924 0.999232 0 0.0306809 0.999529 0 0.0259346 0.999664 0 0.154755 0.987953 0 0.0474348 0.998874 0 0.056996 0.998374 0 0.143898 0.989593 0 0.261374 0.965238 0 0.0392911 0.999228 0 0.030015 0.999549 0 0.0260902 0.99966 0 0.143866 0.989597 0 0.0438962 0.999036 0 0.0537963 0.998552 0 0.997642 0.068631 0 0.998579 0.0532957 0 0.989509 0.144475 0 0.974819 0.222999 0 0.943211 0.332196 0 0.99262 0.121269 0 0.955887 0.293734 0 0.972371 0.233439 0 0.40029 0.916389 0 0.561322 0.827598 0 0.296888 0.954912 0 0.26465 0.964345 0 0.190675 0.981653 0 0.586314 0.810084 0 0.263676 0.964611 0 0.678742 0.734376 0 0.395568 0.918437 0 0.558862 0.82926 0 0.29343 0.955981 0 0.253212 0.967411 0 0.16516 0.986267 0 0.574694 0.818368 0 0.195822 0.980639 0 0.751131 0.660153 0 0.999999 0.00103187 0 4.114e-05 1 0 0.999997 0.00224878 0 0.999997 0.00230034 0 0.999999 0.00170035 0 1 0.000425873 0 0.999999 0.00134307 0 0.999999 0.00112319 0 
VECTORS VY float