# vtk DataFile Version 3.0
Generated by GMDS VTK Writer

ASCII
DATASET UNSTRUCTURED_GRID
POINTS 359 float
0 1 0
-0.104528 0.994522 0
-0.207912 0.978148 0
-0.309017 0.951057 0
-0.406737 0.913545 0
-0.5 0.866025 0
-0.587785 0.809017 0
-0.669131 0.743145 0
-0.743145 0.669131 0
-0.809017 0.587785 0
-0.866025 0.5 0
-0.913545 0.406737 0
-0.951057 0.309017 0
-0.978148 0.207912 0
-0.994522 0.104528 0
-1 1.76766e-10 0
-0.994522 -0.104528 0
-0.978148 -0.207912 0
-0.951057 -0.309017 0
-0.913545 -0.406737 0
-0.866025 -0.5 0
-0.809017 -0.587785 0
-0.743145 -0.669131 0
-0.669131 -0.743145 0
-0.587785 -0.809017 0
-0.5 -0.866025 0
-0.406737 -0.913545 0
-0.309017 -0.951057 0
-0.207912 -0.978148 0
-0.104528 -0.994522 0
-4.68349e-12 -1 0
0.104528 -0.994522 0
0.207912 -0.978148 0
0.309017 -0.951057 0
0.406737 -0.913545 0
0.5 -0.866025 0
0.587785 -0.809017 0
0.669131 -0.743145 0
0.743145 -0.669131 0
0.809017 -0.587785 0
0.866025 -0.5 0
0.913545 -0.406737 0
0.951057 -0.309017 0
0.978148 -0.207912 0
0.994522 -0.104528 0
1 1.71026e-10 0
0.994522 0.104528 0
0.978148 0.207912 0
0.951057 0.309017 0
0.913545 0.406737 0
0.866025 0.5 0
0.809017 0.587785 0
0.743145 0.669131 0
0.669131 0.743145 0
0.587785 0.809017 0
0.5 0.866025 0
0.406737 0.913545 0
0.309017 0.951057 0
0.207912 0.978148 0
0.104528 0.994522 0
0.0974732 -0.34469 0
-0.296166 0.468565 0
-0.579177 -0.26787 0
0.46807 -0.384117 0
-0.0737913 -0.685735 0
0.0432456 0.678731 0
-0.17264 0.00490635 0
-0.250816 -0.407633 0
0.0754791 0.324719 0
-0.623838 0.186084 0
0.282308 0.0040069 0
0.263608 -0.634945 0
0.461107 0.412784 0
0.679696 -0.0448469 0
0.538059 -0.588586 0
0.660468 -0.43758 0
-0.517207 0.56482 0
-0.351241 0.687927 0
-0.748363 -0.406242 0
-0.776863 -0.180965 0
0.0567087 -0.82649 0
-0.155205 -0.855849 0
-0.172127 0.785213 0
0.0166477 0.867957 0
-0.131063 0.583162 0
0.012058 -0.514012 0
-0.0904743 -0.367702 0
-0.179183 -0.540947 0
-0.240125 0.251349 0
-0.0247891 0.197259 0
-0.0882889 0.386078 0
-0.394081 -0.129096 0
-0.412308 0.103083 0
-0.595534 -0.0406541 0
-0.458256 0.332839 0
-0.016104 -0.181532 0
-0.218001 -0.236807 0
-0.396812 -0.34925 0
0.0662799 0.484647 0
-0.799293 0.0377705 0
-0.817834 0.259999 0
-0.670282 0.419124 0
0.225523 0.78038 0
0.117029 -0.656584 0
0.242974 -0.785295 0
0.19106 -0.502776 0
0.400588 -0.70875 0
0.358908 -0.527189 0
0.283363 -0.350585 0
0.382067 -0.187472 0
0.187495 -0.171885 0
0.0763986 0.00923484 0
0.172868 0.18382 0
-0.570893 -0.507386 0
-0.377745 -0.553477 0
-0.295657 -0.725012 0
0.717476 0.349623 0
0.635396 0.570467 0
0.427537 0.676524 0
0.244604 0.567486 0
0.234017 0.361833 0
0.372074 0.187467 0
0.574616 -0.221074 0
0.481439 -0.0134525 0
0.865459 -0.0804988 0
0.766728 -0.265131 0
0.799052 0.135391 0
0.586428 0.171102 0
0.505036 -0.485117 0
0.601283 -0.516301 0
0.562675 -0.409166 0
0.636669 -0.627391 0
0.702202 -0.551038 0
0.565507 -0.696313 0
0.761288 -0.468335 0
-0.467495 0.746338 0
-0.379162 0.799997 0
-0.551145 0.684979 0
-0.435908 0.629635 0
-0.629757 0.616323 0
-0.405961 0.515235 0
-0.323578 0.577472 0
-0.865723 -0.247363 0
-0.882996 -0.14104 0
-0.843293 -0.353998 0
-0.762426 -0.291621 0
-0.819919 -0.46405 0
-0.666466 -0.338928 0
-0.675951 -0.22388 0
-0.0776131 -0.922556 0
-0.188025 -0.929849 0
0.027908 -0.914114 0
-0.0458793 -0.841118 0
0.129593 -0.900093 0
-0.011222 -0.755907 0
-0.116006 -0.772282 0
-0.0931643 0.916511 0
0.00601614 0.948195 0
-0.191143 0.883926 0
-0.0786506 0.826697 0
-0.28681 0.845652 0
-0.0621629 0.730619 0
0.0294295 0.77595 0
-0.15173 0.684327 0
-0.0452834 0.632189 0
-0.263071 0.739722 0
-0.23894 0.633764 0
-0.214657 0.528769 0
-0.030743 -0.599281 0
-0.0825445 -0.526899 0
-0.130198 -0.614346 0
-0.0388688 -0.440721 0
-0.131116 -0.454942 0
0.0543266 -0.429813 0
0.00277674 -0.353009 0
-0.179245 -0.388162 0
-0.220345 -0.468636 0
-0.26903 0.360245 0
-0.162964 0.322309 0
-0.189782 0.42513 0
-0.131014 0.218929 0
-0.0613166 0.291271 0
-0.208895 0.137503 0
-0.091284 0.112246 0
0.0325966 0.269695 0
0.00384534 0.351878 0
-0.48855 -0.197171 0
-0.493979 -0.0835452 0
-0.586386 -0.153942 0
-0.398939 -0.0136563 0
-0.503885 0.0309683 0
-0.293365 -0.0640152 0
-0.301058 0.0576832 0
-0.51981 0.145391 0
-0.608082 0.0723296 0
-0.433528 0.218329 0
-0.540595 0.260094 0
-0.323844 0.176587 0
-0.349926 0.290515 0
-0.377265 0.402697 0
-0.148805 -0.299632 0
-0.236554 -0.332844 0
-0.0541602 -0.277158 0
-0.119525 -0.202303 0
0.043544 -0.264113 0
-0.0854869 -0.0963232 0
-0.197864 -0.128458 0
-0.485929 -0.310494 0
-0.395668 -0.241626 0
-0.310223 -0.286716 0
-0.301166 -0.180656 0
-0.315371 -0.382933 0
-0.029171 0.534249 0
0.0557485 0.580266 0
-0.110715 0.483117 0
-0.0137992 0.439632 0
0.0721665 0.395475 0
-0.899187 0.180519 0
-0.899042 0.290085 0
-0.899023 0.0727479 0
-0.807957 0.147899 0
-0.894113 -0.0343984 0
-0.709887 0.111497 0
-0.724341 0.224574 0
-0.697878 -0.000268333 0
-0.78947 -0.0716722 0
-0.686832 -0.111781 0
-0.644493 0.301135 0
-0.743754 0.340404 0
-0.771165 0.460881 0
-0.835177 0.37637 0
-0.703043 0.541293 0
-0.486347 0.447761 0
-0.595246 0.494271 0
-0.565708 0.375938 0
0.133946 0.726777 0
0.122445 0.824899 0
0.215696 0.882174 0
0.112259 0.915987 0
0.316455 0.842263 0
0.199219 -0.644669 0
0.175787 -0.722571 0
0.255258 -0.701106 0
0.0862063 -0.739911 0
0.153127 -0.808771 0
0.025233 -0.670462 0
0.22716 -0.878585 0
0.103294 -0.505626 0
0.145867 -0.425321 0
0.0631443 -0.587084 0
0.151177 -0.578118 0
0.231499 -0.575859 0
0.325092 -0.752927 0
0.323031 -0.66679 0
0.319771 -0.848205 0
0.406975 -0.807716 0
0.488762 -0.756845 0
0.470931 -0.653365 0
0.4456 -0.554573 0
0.384987 -0.616025 0
0.413256 -0.458748 0
0.306506 -0.588121 0
0.274937 -0.509846 0
0.323899 -0.439452 0
0.235764 -0.427851 0
0.374998 -0.364461 0
0.190795 -0.344255 0
0.237446 -0.261628 0
0.141058 -0.25943 0
0.332129 -0.270698 0
0.285182 -0.177335 0
0.426433 -0.285484 0
0.333392 -0.0912917 0
0.234446 -0.0845557 0
0.180951 0.00745266 0
0.132723 -0.0823596 0
0.0266803 -0.0852852 0
0.0862972 -0.173631 0
-0.0370756 0.0083264 0
0.227512 0.0958665 0
0.126542 0.0979536 0
0.0754102 0.186034 0
0.0212739 0.102153 0
0.118957 0.26275 0
-0.65968 -0.459864 0
-0.574045 -0.384694 0
-0.739867 -0.529903 0
-0.65916 -0.592067 0
-0.571627 -0.641833 0
-0.392677 -0.453249 0
-0.305618 -0.469499 0
-0.482946 -0.424209 0
-0.477015 -0.539975 0
-0.464858 -0.658075 0
-0.277355 -0.551506 0
-0.346264 -0.645769 0
-0.234852 -0.630211 0
-0.425237 -0.754478 0
-0.180112 -0.70339 0
-0.355324 -0.821566 0
-0.274011 -0.877362 0
-0.229621 -0.792613 0
0.597906 0.377784 0
0.674113 0.458969 0
0.556946 0.499089 0
0.791834 0.428485 0
0.74604 0.529186 0
0.834104 0.326582 0
0.701293 0.630835 0
0.529977 0.62107 0
0.443475 0.554179 0
0.605644 0.685957 0
0.510966 0.742234 0
0.414855 0.795204 0
0.337741 0.617215 0
0.345298 0.499815 0
0.326548 0.73105 0
0.235814 0.674776 0
0.145166 0.625743 0
0.245111 0.461666 0
0.33514 0.384689 0
0.152375 0.525065 0
0.153196 0.428713 0
0.145241 0.341269 0
0.328084 0.093619 0
0.270316 0.185705 0
0.306533 0.280243 0
0.208757 0.269608 0
0.414275 0.289047 0
0.431569 -0.101946 0
0.381539 -0.00311029 0
0.478027 -0.202587 0
0.529325 -0.116509 0
0.521716 -0.304792 0
0.626582 -0.134246 0
0.580906 -0.0278887 0
0.860588 -0.287811 0
0.814066 -0.380213 0
0.902377 -0.192342 0
0.815578 -0.173696 0
0.94382 -0.0954076 0
0.775501 -0.0630736 0
0.722602 -0.153828 0
0.715451 -0.353516 0
0.670828 -0.242526 0
0.617865 -0.327987 0
0.833145 0.0281935 0
0.736154 0.0454818 0
0.922779 0.012619 0
0.899706 0.118693 0
0.870429 0.223327 0
0.760444 0.242102 0
0.647783 0.263182 0
0.694167 0.153495 0
0.530928 0.28316 0
0.635024 0.0626859 0
0.532078 0.077555 0
0.477752 0.183018 0
0.429098 0.0877588 0

CELLS 656 2624
3 63 128 130 
3 128 129 130 
3 128 74 129 
3 130 129 75 
3 74 131 129 
3 131 132 129 
3 131 38 132 
3 129 132 75 
3 74 133 131 
3 133 37 131 
3 133 36 37 
3 131 37 38 
3 75 132 134 
3 132 39 134 
3 132 38 39 
3 134 39 40 
3 4 5 136 
3 5 135 136 
3 5 6 135 
3 136 135 77 
3 6 137 135 
3 137 138 135 
3 137 76 138 
3 135 138 77 
3 6 7 137 
3 7 139 137 
3 7 8 139 
3 137 139 76 
3 77 138 141 
3 138 140 141 
3 138 76 140 
3 141 140 61 
3 16 17 143 
3 17 142 143 
3 17 18 142 
3 143 142 79 
3 18 144 142 
3 144 145 142 
3 144 78 145 
3 142 145 79 
3 18 19 144 
3 19 146 144 
3 19 20 146 
3 144 146 78 
3 79 145 148 
3 145 147 148 
3 145 78 147 
3 148 147 62 
3 28 29 150 
3 29 149 150 
3 29 30 149 
3 150 149 81 
3 30 151 149 
3 151 152 149 
3 151 80 152 
3 149 152 81 
3 30 31 151 
3 31 153 151 
3 31 32 153 
3 151 153 80 
3 81 152 155 
3 152 154 155 
3 152 80 154 
3 155 154 64 
3 0 1 157 
3 1 156 157 
3 1 2 156 
3 157 156 83 
3 2 158 156 
3 158 159 156 
3 158 82 159 
3 156 159 83 
3 2 3 158 
3 3 160 158 
3 3 4 160 
3 158 160 82 
3 83 159 162 
3 159 161 162 
3 159 82 161 
3 162 161 65 
3 65 161 164 
3 161 163 164 
3 161 82 163 
3 164 163 84 
3 82 165 163 
3 165 166 163 
3 165 77 166 
3 163 166 84 
3 82 160 165 
3 160 136 165 
3 160 4 136 
3 165 136 77 
3 84 166 167 
3 166 141 167 
3 166 77 141 
3 167 141 61 
3 64 168 170 
3 168 169 170 
3 168 85 169 
3 170 169 87 
3 85 171 169 
3 171 172 169 
3 171 86 172 
3 169 172 87 
3 85 173 171 
3 173 174 171 
3 173 60 174 
3 171 174 86 
3 87 172 176 
3 172 175 176 
3 172 86 175 
3 176 175 67 
3 61 177 179 
3 177 178 179 
3 177 88 178 
3 179 178 90 
3 88 180 178 
3 180 181 178 
3 180 89 181 
3 178 181 90 
3 88 182 180 
3 182 183 180 
3 182 66 183 
3 180 183 89 
3 90 181 185 
3 181 184 185 
3 181 89 184 
3 185 184 68 
3 62 186 188 
3 186 187 188 
3 186 91 187 
3 188 187 93 
3 91 189 187 
3 189 190 187 
3 189 92 190 
3 187 190 93 
3 91 191 189 
3 191 192 189 
3 191 66 192 
3 189 192 92 
3 93 190 194 
3 190 193 194 
3 190 92 193 
3 194 193 69 
3 69 193 196 
3 193 195 196 
3 193 92 195 
3 196 195 94 
3 92 197 195 
3 197 198 195 
3 197 88 198 
3 195 198 94 
3 92 192 197 
3 192 182 197 
3 192 66 182 
3 197 182 88 
3 94 198 199 
3 198 177 199 
3 198 88 177 
3 199 177 61 
3 67 175 201 
3 175 200 201 
3 175 86 200 
3 201 200 96 
3 86 202 200 
3 202 203 200 
3 202 95 203 
3 200 203 96 
3 86 174 202 
3 174 204 202 
3 174 60 204 
3 202 204 95 
3 96 203 206 
3 203 205 206 
3 203 95 205 
3 206 205 66 
3 62 207 186 
3 207 208 186 
3 207 97 208 
3 186 208 91 
3 97 209 208 
3 209 210 208 
3 209 96 210 
3 208 210 91 
3 97 211 209 
3 211 201 209 
3 211 67 201 
3 209 201 96 
3 91 210 191 
3 210 206 191 
3 210 96 206 
3 191 206 66 
3 65 164 213 
3 164 212 213 
3 164 84 212 
3 213 212 98 
3 84 214 212 
3 214 215 212 
3 214 90 215 
3 212 215 98 
3 84 167 214 
3 167 179 214 
3 167 61 179 
3 214 179 90 
3 98 215 216 
3 215 185 216 
3 215 90 185 
3 216 185 68 
3 12 13 218 
3 13 217 218 
3 13 14 217 
3 218 217 100 
3 14 219 217 
3 219 220 217 
3 219 99 220 
3 217 220 100 
3 14 15 219 
3 15 221 219 
3 15 16 221 
3 219 221 99 
3 100 220 223 
3 220 222 223 
3 220 99 222 
3 223 222 69 
3 69 222 194 
3 222 224 194 
3 222 99 224 
3 194 224 93 
3 99 225 224 
3 225 226 224 
3 225 79 226 
3 224 226 93 
3 99 221 225 
3 221 143 225 
3 221 16 143 
3 225 143 79 
3 93 226 188 
3 226 148 188 
3 226 79 148 
3 188 148 62 
3 69 227 223 
3 227 228 223 
3 227 101 228 
3 223 228 100 
3 101 229 228 
3 229 230 228 
3 229 10 230 
3 228 230 100 
3 101 231 229 
3 231 9 229 
3 231 8 9 
3 229 9 10 
3 100 230 218 
3 230 11 218 
3 230 10 11 
3 218 11 12 
3 61 140 199 
3 140 232 199 
3 140 76 232 
3 199 232 94 
3 76 233 232 
3 233 234 232 
3 233 101 234 
3 232 234 94 
3 76 139 233 
3 139 231 233 
3 139 8 231 
3 233 231 101 
3 94 234 196 
3 234 227 196 
3 234 101 227 
3 196 227 69 
3 65 235 162 
3 235 236 162 
3 235 102 236 
3 162 236 83 
3 102 237 236 
3 237 238 236 
3 237 58 238 
3 236 238 83 
3 102 239 237 
3 239 57 237 
3 239 56 57 
3 237 57 58 
3 83 238 157 
3 238 59 157 
3 238 58 59 
3 157 59 0 
3 71 240 242 
3 240 241 242 
3 240 103 241 
3 242 241 104 
3 103 243 241 
3 243 244 241 
3 243 80 244 
3 241 244 104 
3 103 245 243 
3 245 154 243 
3 245 64 154 
3 243 154 80 
3 104 244 246 
3 244 153 246 
3 244 80 153 
3 246 153 32 
3 60 173 248 
3 173 247 248 
3 173 85 247 
3 248 247 105 
3 85 249 247 
3 249 250 247 
3 249 103 250 
3 247 250 105 
3 85 168 249 
3 168 245 249 
3 168 64 245 
3 249 245 103 
3 105 250 251 
3 250 240 251 
3 250 103 240 
3 251 240 71 
3 71 242 253 
3 242 252 253 
3 242 104 252 
3 253 252 106 
3 104 254 252 
3 254 255 252 
3 254 34 255 
3 252 255 106 
3 104 246 254 
3 246 33 254 
3 246 32 33 
3 254 33 34 
3 106 255 256 
3 255 35 256 
3 255 34 35 
3 256 35 36 
3 36 133 256 
3 133 257 256 
3 133 74 257 
3 256 257 106 
3 74 258 257 
3 258 259 257 
3 258 107 259 
3 257 259 106 
3 74 128 258 
3 128 260 258 
3 128 63 260 
3 258 260 107 
3 106 259 253 
3 259 261 253 
3 259 107 261 
3 253 261 71 
3 71 261 251 
3 261 262 251 
3 261 107 262 
3 251 262 105 
3 107 263 262 
3 263 264 262 
3 263 108 264 
3 262 264 105 
3 107 260 263 
3 260 265 263 
3 260 63 265 
3 263 265 108 
3 105 264 248 
3 264 266 248 
3 264 108 266 
3 248 266 60 
3 60 266 268 
3 266 267 268 
3 266 108 267 
3 268 267 110 
3 108 269 267 
3 269 270 267 
3 269 109 270 
3 267 270 110 
3 108 265 269 
3 265 271 269 
3 265 63 271 
3 269 271 109 
3 110 270 273 
3 270 272 273 
3 270 109 272 
3 273 272 70 
3 70 274 273 
3 274 275 273 
3 274 111 275 
3 273 275 110 
3 111 276 275 
3 276 277 275 
3 276 95 277 
3 275 277 110 
3 111 278 276 
3 278 205 276 
3 278 66 205 
3 276 205 95 
3 110 277 268 
3 277 204 268 
3 277 95 204 
3 268 204 60 
3 70 279 274 
3 279 280 274 
3 279 112 280 
3 274 280 111 
3 112 281 280 
3 281 282 280 
3 281 89 282 
3 280 282 111 
3 112 283 281 
3 283 184 281 
3 283 68 184 
3 281 184 89 
3 111 282 278 
3 282 183 278 
3 282 89 183 
3 278 183 66 
3 62 147 285 
3 147 284 285 
3 147 78 284 
3 285 284 113 
3 78 286 284 
3 286 287 284 
3 286 22 287 
3 284 287 113 
3 78 146 286 
3 146 21 286 
3 146 20 21 
3 286 21 22 
3 113 287 288 
3 287 23 288 
3 287 22 23 
3 288 23 24 
3 67 211 290 
3 211 289 290 
3 211 97 289 
3 290 289 114 
3 97 291 289 
3 291 292 289 
3 291 113 292 
3 289 292 114 
3 97 207 291 
3 207 285 291 
3 207 62 285 
3 291 285 113 
3 114 292 293 
3 292 288 293 
3 292 113 288 
3 293 288 24 
3 67 290 176 
3 290 294 176 
3 290 114 294 
3 176 294 87 
3 114 295 294 
3 295 296 294 
3 295 115 296 
3 294 296 87 
3 114 293 295 
3 293 297 295 
3 293 24 297 
3 295 297 115 
3 87 296 170 
3 296 298 170 
3 296 115 298 
3 170 298 64 
3 24 25 297 
3 25 299 297 
3 25 26 299 
3 297 299 115 
3 26 300 299 
3 300 301 299 
3 300 81 301 
3 299 301 115 
3 26 27 300 
3 27 150 300 
3 27 28 150 
3 300 150 81 
3 115 301 298 
3 301 155 298 
3 301 81 155 
3 298 155 64 
3 72 302 304 
3 302 303 304 
3 302 116 303 
3 304 303 117 
3 116 305 303 
3 305 306 303 
3 305 50 306 
3 303 306 117 
3 116 307 305 
3 307 49 305 
3 307 48 49 
3 305 49 50 
3 117 306 308 
3 306 51 308 
3 306 50 51 
3 308 51 52 
3 72 304 310 
3 304 309 310 
3 304 117 309 
3 310 309 118 
3 117 311 309 
3 311 312 309 
3 311 54 312 
3 309 312 118 
3 117 308 311 
3 308 53 311 
3 308 52 53 
3 311 53 54 
3 118 312 313 
3 312 55 313 
3 312 54 55 
3 313 55 56 
3 72 310 315 
3 310 314 315 
3 310 118 314 
3 315 314 119 
3 118 316 314 
3 316 317 314 
3 316 102 317 
3 314 317 119 
3 118 313 316 
3 313 239 316 
3 313 56 239 
3 316 239 102 
3 119 317 318 
3 317 235 318 
3 317 102 235 
3 318 235 65 
3 72 315 320 
3 315 319 320 
3 315 119 319 
3 320 319 120 
3 119 321 319 
3 321 322 319 
3 321 98 322 
3 319 322 120 
3 119 318 321 
3 318 213 321 
3 318 65 213 
3 321 213 98 
3 120 322 323 
3 322 216 323 
3 322 98 216 
3 323 216 68 
3 70 324 279 
3 324 325 279 
3 324 121 325 
3 279 325 112 
3 121 326 325 
3 326 327 325 
3 326 120 327 
3 325 327 112 
3 121 328 326 
3 328 320 326 
3 328 72 320 
3 326 320 120 
3 112 327 283 
3 327 323 283 
3 327 120 323 
3 283 323 68 
3 70 272 330 
3 272 329 330 
3 272 109 329 
3 330 329 123 
3 109 331 329 
3 331 332 329 
3 331 122 332 
3 329 332 123 
3 109 271 331 
3 271 333 331 
3 271 63 333 
3 331 333 122 
3 123 332 335 
3 332 334 335 
3 332 122 334 
3 335 334 73 
3 40 41 337 
3 41 336 337 
3 41 42 336 
3 337 336 125 
3 42 338 336 
3 338 339 336 
3 338 124 339 
3 336 339 125 
3 42 43 338 
3 43 340 338 
3 43 44 340 
3 338 340 124 
3 125 339 342 
3 339 341 342 
3 339 124 341 
3 342 341 73 
3 40 337 134 
3 337 343 134 
3 337 125 343 
3 134 343 75 
3 125 344 343 
3 344 345 343 
3 344 122 345 
3 343 345 75 
3 125 342 344 
3 342 334 344 
3 342 73 334 
3 344 334 122 
3 75 345 130 
3 345 333 130 
3 345 122 333 
3 130 333 63 
3 73 341 347 
3 341 346 347 
3 341 124 346 
3 347 346 126 
3 124 348 346 
3 348 349 346 
3 348 46 349 
3 346 349 126 
3 124 340 348 
3 340 45 348 
3 340 44 45 
3 348 45 46 
3 126 349 350 
3 349 47 350 
3 349 46 47 
3 350 47 48 
3 48 307 350 
3 307 351 350 
3 307 116 351 
3 350 351 126 
3 116 352 351 
3 352 353 351 
3 352 127 353 
3 351 353 126 
3 116 302 352 
3 302 354 352 
3 302 72 354 
3 352 354 127 
3 126 353 347 
3 353 355 347 
3 353 127 355 
3 347 355 73 
3 73 355 335 
3 355 356 335 
3 355 127 356 
3 335 356 123 
3 127 357 356 
3 357 358 356 
3 357 121 358 
3 356 358 123 
3 127 354 357 
3 354 328 357 
3 354 72 328 
3 357 328 121 
3 123 358 330 
3 358 324 330 
3 358 121 324 
3 330 324 70 

CELL_TYPES 656
5 
5 
5 
5 
5 
5 
5 
5 
5 
5 
5 
5 
5 
5 
5 
5 
5 
5 
5 
5 
5 
5 
5 
5 
5 
5 
5 
5 
5 
5 
5 
5 
5 
5 
5 
5 
5 
5 
5 
5 
5 
5 
5 
5 
5 
5 
5 
5 
5 
5 
5 
5 
5 
5 
5 
5 
5 
5 
5 
5 
5 
5 
5 
5 
5 
5 
5 
5 
5 
5 
5 
5 
5 
5 
5 
5 
5 
5 
5 
5 
5 
5 
5 
5 
5 
5 
5 
5 
5 
5 
5 
5 
5 
5 
5 
5 
5 
5 
5 
5 
5 
5 
5 
5 
5 
5 
5 
5 
5 
5 
5 
5 
5 
5 
5 
5 
5 
5 
5 
5 
5 
5 
5 
5 
5 
5 
5 
5 
5 
5 
5 
5 
5 
5 
5 
5 
5 
5 
5 
5 
5 
5 
5 
5 
5 
5 
5 
5 
5 
5 
5 
5 
5 
5 
5 
5 
5 
5 
5 
5 
5 
5 
5 
5 
5 
5 
5 
5 
5 
5 
5 
5 
5 
5 
5 
5 
5 
5 
5 
5 
5 
5 
5 
5 
5 
5 
5 
5 
5 
5 
5 
5 
5 
5 
5 
5 
5 
5 
5 
5 
5 
5 
5 
5 
5 
5 
5 
5 
5 
5 
5 
5 
5 
5 
5 
5 
5 
5 
5 
5 
5 
5 
5 
5 
5 
5 
5 
5 
5 
5 
5 
5 
5 
5 
5 
5 
5 
5 
5 
5 
5 
5 
5 
5 
5 
5 
5 
5 
5 
5 
5 
5 
5 
5 
5 
5 
5 
5 
5 
5 
5 
5 
5 
5 
5 
5 
5 
5 
5 
5 
5 
5 
5 
5 
5 
5 
5 
5 
5 
5 
5 
5 
5 
5 
5 
5 
5 
5 
5 
5 
5 
5 
5 
5 
5 
5 
5 
5 
5 
5 
5 
5 
5 
5 
5 
5 
5 
5 
5 
5 
5 
5 
5 
5 
5 
5 
5 
5 
5 
5 
5 
5 
5 
5 
5 
5 
5 
5 
5 
5 
5 
5 
5 
5 
5 
5 
5 
5 
5 
5 
5 
5 
5 
5 
5 
5 
5 
5 
5 
5 
5 
5 
5 
5 
5 
5 
5 
5 
5 
5 
5 
5 
5 
5 
5 
5 
5 
5 
5 
5 
5 
5 
5 
5 
5 
5 
5 
5 
5 
5 
5 
5 
5 
5 
5 
5 
5 
5 
5 
5 
5 
5 
5 
5 
5 
5 
5 
5 
5 
5 
5 
5 
5 
5 
5 
5 
5 
5 
5 
5 
5 
5 
5 
5 
5 
5 
5 
5 
5 
5 
5 
5 
5 
5 
5 
5 
5 
5 
5 
5 
5 
5 
5 
5 
5 
5 
5 
5 
5 
5 
5 
5 
5 
5 
5 
5 
5 
5 
5 
5 
5 
5 
5 
5 
5 
5 
5 
5 
5 
5 
5 
5 
5 
5 
5 
5 
5 
5 
5 
5 
5 
5 
5 
5 
5 
5 
5 
5 
5 
5 
5 
5 
5 
5 
5 
5 
5 
5 
5 
5 
5 
5 
5 
5 
5 
5 
5 
5 
5 
5 
5 
5 
5 
5 
5 
5 
5 
5 
5 
5 
5 
5 
5 
5 
5 
5 
5 
5 
5 
5 
5 
5 
5 
5 
5 
5 
5 
5 
5 
5 
5 
5 
5 
5 
5 
5 
5 
5 
5 
5 
5 
5 
5 
5 
5 
5 
5 
5 
5 
5 
5 
5 
5 
5 
5 
5 
5 
5 
5 
5 
5 
5 
5 
5 
5 
5 
5 
5 
5 
5 
5 
5 
5 
5 
5 
5 
5 
5 
5 
5 
5 
5 
5 
5 
5 
5 
5 
5 
5 
5 
5 
5 
5 
5 
5 
5 
5 
5 
5 
5 
5 
5 
5 
5 
5 
5 
5 
5 
5 
5 
5 
5 
5 
5 
5 
5 
5 
5 
5 
5 
5 
5 
5 
5 
5 
5 
5 
5 
5 
5 
5 
5 
5 
5 
5 
5 
5 
5 
5 
5 
5 
5 
5 
5 
5 
5 
5 
5 
5 
5 
5 
5 
5 
5 
5 
5 
POINT_DATA 359
SCALARS GMDS_ID int 1
LOOKUP_TABLE default
0 1 2 3 4 5 6 7 8 9 10 11 12 13 14 15 16 17 18 19 20 21 22 23 24 25 26 27 28 29 30 31 32 33 34 35 36 37 38 39 40 41 42 43 44 45 46 47 48 49 50 51 52 53 54 55 56 57 58 59 60 61 62 63 64 65 66 67 68 69 70 71 72 73 74 75 76 77 78 79 80 81 82 83 84 85 86 87 88 89 90 91 92 93 94 95 96 97 98 99 100 101 102 103 104 105 106 107 108 109 110 111 112 113 114 115 116 117 118 119 120 121 122 123 124 125 126 127 128 129 130 131 132 133 134 135 136 137 138 139 140 141 142 143 144 145 146 147 148 149 150 151 152 153 154 155 156 157 158 159 160 161 162 163 164 165 166 167 168 169 170 171 172 173 174 175 176 177 178 179 180 181 182 183 184 185 186 187 188 189 190 191 192 193 194 195 196 197 198 199 200 201 202 203 204 205 206 207 208 209 210 211 212 213 214 215 216 217 218 219 220 221 222 223 224 225 226 227 228 229 230 231 232 233 234 235 236 237 238 239 240 241 242 243 244 245 246 247 248 249 250 251 252 253 254 255 256 257 258 259 260 261 262 263 264 265 266 267 268 269 270 271 272 273 274 275 276 277 278 279 280 281 282 283 284 285 286 287 288 289 290 291 292 293 294 295 296 297 298 299 300 301 302 303 304 305 306 307 308 309 310 311 312 313 314 315 316 317 318 319 320 321 322 323 324 325 326 327 328 329 330 331 332 333 334 335 336 337 338 339 340 341 342 343 344 345 346 347 348 349 350 351 352 353 354 355 356 357 358 
SCALARS angle float 1
LOOKUP_TABLE default
-0 0.418879 0.837758 1.25664 1.67552 2.0944 2.51327 2.93215 3.35103 3.76991 4.18879 4.60767 5.02655 5.44543 5.86431 6.28319 0.418879 0.837758 1.25664 1.67552 2.0944 2.51327 2.93215 3.35103 3.76991 4.18879 4.60767 5.02655 5.44543 5.86431 -0 0.418879 0.837758 1.25664 1.67552 2.0944 2.51327 2.93215 3.35103 3.76991 4.18879 4.60767 5.02655 5.44543 5.86431 6.83943e-10 0.418879 0.837758 1.25664 1.67552 2.0944 2.51327 2.93215 3.35103 3.76991 4.18879 4.60767 5.02655 5.44543 5.86431 2.75811 3.53304 2.29631 3.36172 5.55476 5.45059 3.52024 3.52206 4.0453 4.54475 3.53627 1.7775 3.05276 6.02268 2.96462 3.85071 3.37515 2.35588 2.15588 1.32028 0.659925 5.39955 0.597514 5.97149 4.86768 2.14295 3.37098 4.25829 3.82033 3.80578 4.07903 2.96786 3.87599 1.96958 3.94678 3.28347 3.25351 3.02647 4.61789 6.1601 4.8512 4.13803 5.11436 1.3078 1.38543 2.02695 2.02807 2.41158 2.78274 3.81195 3.22185 3.52225 3.67472 2.91318 3.74584 4.64292 1.96328 2.94814 3.90556 4.39267 3.8221 2.98676 4.84775 5.92471 5.93773 5.08919 0.573925 1.24082 3.15553 3.39995 3.64291 3.18269 3.58648 2.69275 4.047 2.52061 1.88874 3.01787 2.93215 3.40922 3.38654 3.00694 1.35712 0.731181 1.77771 1.79086 2.13228 2.19375 1.84767 5.97895 5.41351 0.409392 6.06843 0.915126 0.0962147 5.43585 0.111584 6.17248 0.890332 6.1581 1.6366 5.87897 5.74224 0.0262089 5.44807 1.78549 2.49582 3.56306 5.98668 4.223 4.83768 3.24872 3.76312 2.51946 3.04692 3.51899 3.8087 3.77134 3.87229 3.83695 3.81139 3.93936 3.72978 3.68386 3.93359 4.12049 2.54863 2.72257 2.06673 3.39951 3.79059 3.32541 3.63389 4.23693 4.6778 4.02144 4.21541 3.84335 3.86331 3.71265 3.3375 3.34554 3.24855 3.30262 3.09916 3.39038 3.31142 2.68143 2.8855 3.14473 3.12973 3.31981 4.87984 5.05784 4.28764 4.40934 4.26095 5.40698 4.95807 6.11556 5.27643 0.399918 5.12219 4.73087 0.165497 0.710429 1.36878 4.37288 4.48429 4.18688 4.56785 3.75101 3.72105 3.75751 4.04909 5.32682 5.56983 5.3259 5.74987 4.78284 1.58348 1.33739 1.5932 0.968033 1.11417 0.672099 1.14769 1.92598 2.33014 1.37399 1.66541 1.86036 1.6816 1.87081 1.48529 1.84577 2.30011 2.47002 2.6811 2.22803 2.86061 2.03505 2.19012 2.58403 2.39564 3.0348 2.67562 3.00827 2.98714 3.2145 3.35808 3.60132 3.74706 3.43392 3.5055 3.38404 3.3942 3.23008 3.53333 3.53385 3.62052 3.77021 3.66242 3.86806 2.52332 2.56989 2.50145 2.89803 3.41049 3.32189 3.63341 2.94828 3.34323 3.82896 4.06237 4.21835 4.53058 4.29486 4.97354 4.66859 5.03613 5.01697 2.4561 2.49198 2.97241 2.06029 2.51247 1.48827 2.94443 3.4042 3.50047 3.36202 3.80446 4.35459 4.11943 3.73943 4.52555 4.7912 4.99009 4.04677 3.49206 4.59428 4.24206 4.00107 3.33404 3.46268 3.41337 3.71819 2.92444 4.80864 4.11508 4.46654 5.39726 4.00191 5.53474 6.03919 5.10478 4.51839 5.50959 5.54478 5.8916 5.98322 5.56107 4.43242 5.01199 4.26899 0.0877508 0.163472 0.0312396 0.466888 1.02736 1.25154 1.7193 0.799022 2.31986 0.286889 0.513775 2.06377 1.85858 
VECTORS cross_X float