# vtk DataFile Version 3.0
Generated by GMDS VTK Writer

ASCII
DATASET UNSTRUCTURED_GRID
POINTS 89 float
1 0.2 0
-1 0.2 0
0.974928 0.422521 0
0.900969 0.633884 0
0.781831 0.82349 0
0.62349 0.981831 0
0.433884 1.10097 0
0.222521 1.17493 0
1.31523e-12 1.2 0
-0.222521 1.17493 0
-0.433884 1.10097 0
-0.62349 0.981831 0
-0.781831 0.82349 0
-0.900969 0.633884 0
-0.974928 0.422521 0
1 0 0
-1 0 0
-0.974928 -0.222521 0
-0.900969 -0.433884 0
-0.781831 -0.62349 0
-0.62349 -0.781831 0
-0.433884 -0.900969 0
-0.222521 -0.974928 0
-1.80107e-12 -1 0
0.222521 -0.974928 0
0.433884 -0.900969 0
0.62349 -0.781831 0
0.781831 -0.62349 0
0.900969 -0.433884 0
0.974928 -0.222521 0
0.5 0.2 0
0.75 0.2 0
0.5 0 0
0.5 0.1 0
0.75 0 0
-0.5 0.2 0
-0.75 0.2 0
-0.5 0 0
-0.5 0.1 0
-0.75 0 0
0.164142 0.714984 0
-0.156625 -0.530242 0
-0.0333475 0.220738 0
0.0610915 -0.147994 0
0.382385 -0.461011 0
-0.380673 0.646487 0
0.541833 0.631982 0
-0.538162 -0.433016 0
0.189021 0.995125 0
-0.0518107 0.939286 0
-0.18697 -0.798196 0
0.0566452 -0.744754 0
0.316896 0.458583 0
0.0543158 0.454372 0
0.262254 0.250724 0
-0.291486 -0.273454 0
-0.0282306 -0.29727 0
-0.164487 -0.102081 0
0.627387 -0.435557 0
0.526418 -0.648525 0
-0.629533 0.627919 0
-0.527723 0.841942 0
0.671803 0.6279 0
0.568526 0.761754 0
-0.669916 -0.428228 0
-0.565822 -0.561898 0
-0.251396 0.0790453 0
-0.328453 0.242798 0
0.0193713 0.0083023 0
-0.407324 -0.456847 0
-0.520183 -0.301655 0
-0.297399 0.890252 0
-0.130442 0.672562 0
-0.463029 0.425252 0
-0.219199 0.437752 0
0.415936 0.652664 0
0.526696 0.498667 0
0.294795 -0.702404 0
0.133061 -0.497141 0
0.449302 -0.246098 0
0.250692 -0.0954601 0
0.210924 -0.287554 0
-0.719221 -0.230534 0
0.702075 -0.221358 0
-0.703621 0.417592 0
0.720218 0.429378 0
-0.391936 -0.667593 0
0.394704 0.864637 0
0.249542 0.0820042 0

CELLS 136 544
3 40 48 49 
3 48 8 49 
3 48 7 8 
3 49 8 9 
3 41 50 51 
3 50 23 51 
3 50 22 23 
3 51 23 24 
3 30 52 54 
3 52 53 54 
3 52 40 53 
3 54 53 42 
3 37 55 57 
3 55 56 57 
3 55 41 56 
3 57 56 43 
3 26 27 59 
3 27 58 59 
3 27 28 58 
3 59 58 44 
3 11 12 61 
3 12 60 61 
3 12 13 60 
3 61 60 45 
3 46 62 63 
3 62 4 63 
3 62 3 4 
3 63 4 5 
3 47 64 65 
3 64 19 65 
3 64 18 19 
3 65 19 20 
3 35 38 67 
3 38 66 67 
3 38 37 66 
3 67 66 42 
3 43 68 57 
3 68 66 57 
3 68 42 66 
3 57 66 37 
3 47 69 70 
3 69 55 70 
3 69 41 55 
3 70 55 37 
3 9 10 71 
3 10 61 71 
3 10 11 61 
3 71 61 45 
3 45 72 71 
3 72 49 71 
3 72 40 49 
3 71 49 9 
3 45 73 74 
3 73 67 74 
3 73 35 67 
3 74 67 42 
3 45 74 72 
3 74 53 72 
3 74 42 53 
3 72 53 40 
3 46 75 76 
3 75 52 76 
3 75 40 52 
3 76 52 30 
3 24 25 77 
3 25 59 77 
3 25 26 59 
3 77 59 44 
3 44 78 77 
3 78 51 77 
3 78 41 51 
3 77 51 24 
3 44 79 81 
3 79 80 81 
3 79 32 80 
3 81 80 43 
3 44 81 78 
3 81 56 78 
3 81 43 56 
3 78 56 41 
3 37 39 82 
3 39 17 82 
3 39 16 17 
3 82 17 18 
3 47 70 64 
3 70 82 64 
3 70 37 82 
3 64 82 18 
3 28 29 83 
3 29 34 83 
3 29 15 34 
3 83 34 32 
3 28 83 58 
3 83 79 58 
3 83 32 79 
3 58 79 44 
3 13 14 84 
3 14 36 84 
3 14 1 36 
3 84 36 35 
3 13 84 60 
3 84 73 60 
3 84 35 73 
3 60 73 45 
3 30 31 85 
3 31 2 85 
3 31 0 2 
3 85 2 3 
3 30 85 76 
3 85 62 76 
3 85 3 62 
3 76 62 46 
3 20 21 86 
3 21 50 86 
3 21 22 50 
3 86 50 41 
3 20 86 65 
3 86 69 65 
3 86 41 69 
3 65 69 47 
3 5 6 87 
3 6 48 87 
3 6 7 48 
3 87 48 40 
3 5 87 63 
3 87 75 63 
3 87 40 75 
3 63 75 46 
3 32 33 88 
3 33 54 88 
3 33 30 54 
3 88 54 42 
3 32 88 80 
3 88 68 80 
3 88 42 68 
3 80 68 43 

CELL_TYPES 136
5 
5 
5 
5 
5 
5 
5 
5 
5 
5 
5 
5 
5 
5 
5 
5 
5 
5 
5 
5 
5 
5 
5 
5 
5 
5 
5 
5 
5 
5 
5 
5 
5 
5 
5 
5 
5 
5 
5 
5 
5 
5 
5 
5 
5 
5 
5 
5 
5 
5 
5 
5 
5 
5 
5 
5 
5 
5 
5 
5 
5 
5 
5 
5 
5 
5 
5 
5 
5 
5 
5 
5 
5 
5 
5 
5 
5 
5 
5 
5 
5 
5 
5 
5 
5 
5 
5 
5 
5 
5 
5 
5 
5 
5 
5 
5 
5 
5 
5 
5 
5 
5 
5 
5 
5 
5 
5 
5 
5 
5 
5 
5 
5 
5 
5 
5 
5 
5 
5 
5 
5 
5 
5 
5 
5 
5 
5 
5 
5 
5 
5 
5 
5 
5 
5 
5 
POINT_DATA 89
SCALARS GMDS_ID int 1
LOOKUP_TABLE default
0 1 2 3 4 5 6 7 8 9 10 11 12 13 14 15 16 17 18 19 20 21 22 23 24 25 26 27 28 29 30 31 32 33 34 35 36 37 38 39 40 41 42 43 44 45 46 47 48 49 50 51 52 53 54 55 56 57 58 59 60 61 62 63 64 65 66 67 68 69 70 71 72 73 74 75 76 77 78 79 80 81 82 83 84 85 86 87 88 
SCALARS angle float 1
LOOKUP_TABLE default
0 0 0.897598 1.7952 2.69279 3.59039 4.48799 5.38559 0 0.897598 1.7952 2.69279 3.59039 4.48799 5.38559 0 0 0.897598 1.7952 2.69279 3.59039 4.48799 5.38559 -0 0.897598 1.7952 2.69279 3.59039 4.48799 5.38559 0 0 0 0 0 0 0 0 0 0 6.13168 6.07736 0.0203585 0.0294026 0.363304 0.243245 0.736279 0.972728 5.47428 0.331156 5.45149 0.355193 0.0357102 0.0249999 0.0174691 0.0316759 0.0282741 0.020965 4.97281 2.51142 5.10766 2.50422 1.661 3.49111 1.7348 3.46736 0.00961203 0.00901224 0.0211255 6.19655 0.280748 0.832056 0.170367 6.27091 0.0447182 6.24987 0.251549 0.895674 0.220085 6.27782 0.0211212 0.0736776 1.36702 6.12281 6.10449 1.24281 4.62814 4.77958 0.0156798 
VECTORS cross_X float
1 0 0 1 0 0 0.974928 0.222521 0 0.900969 0.433884 0 0.781831 0.62349 0 0.62349 0.781831 0 0.433884 0.900969 0 0.222521 0.974928 0 1 0 0 0.974928 0.222521 0 0.900969 0.433884 0 0.781831 0.62349 0 0.62349 0.781831 0 0.433884 0.900969 0 0.222521 0.974928 0 1 0 0 1 0 0 0.974928 0.222521 0 0.900969 0.433884 0 0.781831 0.62349 0 0.62349 0.781831 0 0.433884 0.900969 0 0.222521 0.974928 0 1 0 0 0.974928 0.222521 0 0.900969 0.433884 0 0.781831 0.62349 0 0.62349 0.781831 0 0.433884 0.900969 0 0.222521 0.974928 0 1 0 0 1 0 0 1 0 0 1 0 0 1 0 0 1 0 0 1 0 0 1 0 0 1 0 0 1 0 0 0.0378683 0.999283 0 0.0514338 0.998676 0 0.999987 0.00508961 0 0.999973 0.00735058 0 0.995878 0.0907011 0 0.998152 0.0607737 0 0.983107 0.183032 0 0.970577 0.240792 0 0.20085 0.979622 0 0.996575 0.0826945 0 0.206428 0.978462 0 0.99606 0.0886816 0 0.99996 0.00892744 0 0.99998 0.00624995 0 0.99999 0.00436726 0 0.999969 0.00791889 0 0.999975 0.00706846 0 0.999986 0.00524122 0 0.321766 0.946819 0 0.809289 0.58741 0 0.28967 0.957127 0 0.810345 0.585952 0 0.915016 0.403418 0 0.642701 0.766117 0 0.907417 0.420232 0 0.647239 0.762287 0 0.999997 0.002403 0 0.999997 0.00225306 0 0.999986 0.00528135 0 0.0216569 0.999765 0 0.997538 0.0701294 0 0.978443 0.206517 0 0.999093 0.0425788 0 0.0030682 0.999995 0 0.999938 0.0111793 0 0.00832938 0.999965 0 0.998023 0.0628458 0 0.975035 0.222052 0 0.998487 0.0549934 0 0.00134141 0.999999 0 0.999986 0.00528028 0 0.99983 0.0184184 0 0.942168 0.335141 0 0.0400833 0.999196 0 0.0446598 0.999002 0 0.952119 0.305727 0 0.402056 0.915615 0 0.367111 0.930177 0 0.999992 0.00391994 0 
VECTORS VY float
6.12323e-17 1 0 6.12323e-17 1 0 -0.222521 0.974928 0 -0.433884 0.900969 0 -0.62349 0.781831 0 -0.781831 0.62349 0 -0.900969 0.433884 0 -0.974928 0.222521 0 6.12323e-17 1 0 -0.222521 0.974928 0 -0.433884 0.900969 0 -0.62349 0.781831 0 -0.781831 0.62349 0 -0.900969 0.433884 0 -0.974928 0.222521 0 6.12323e-17 1 0 6.12323e-17 1 0 -0.222521 0.974928 0 -0.433884 0.900969 0 -0.62349 0.781831 0 -0.781831 0.62349 0 -0.900969 0.433884 0 -0.974928 0.222521 0 6.12323e-17 1 0 -0.222521 0.974928 0 -0.433884 0.900969 0 -0.62349 0.781831 0 -0.781831 0.62349 0 -0.900969 0.433884 0 -0.974928 0.222521 0 6.12323e-17 1 0 6.12323e-17 1 0 6.12323e-17 1 0 6.12323e-17 1 0 6.12323e-17 1 0 6.12323e-17 1 0 6.12323e-17 1 0 6.12323e-17 1 0 6.12323e-17 1 0 6.12323e-17 1 0 -0.999283 0.0378683 0 -0.998676 0.0514338 0 -0.00508961 0.999987 0 -0.00735058 0.999973 0 -0.0907011 0.995878 0 -0.0607737 0.998152 0 -0.183032 0.983107 0 -0.240792 0.970577 0 -0.979622 0.20085 0 -0.0826945 0.996575 0 -0.978462 0.206428 0 -0.0886816 0.99606 0 -0.00892744 0.99996 0 -0.00624995 0.99998 0 -0.00436726 0.99999 0 -0.00791889 0.999969 0 -0.00706846 0.999975 0 -0.00524122 0.999986 0 -0.946819 0.321766 0 -0.58741 0.809289 0 -0.957127 0.28967 0 -0.585952 0.810345 0 -0.403418 0.915016 0 -0.766117 0.642701 0 -0.420232 0.907417 0 -0.762287 0.647239 0 -0.002403 0.999997 0 -0.00225306 0.999997 0 -0.00528135 0.999986 0 -0.999765 0.0216569 0 -0.0701294 0.997538 0 -0.206517 0.978443 0 -0.0425788 0.999093 0 -0.999995 0.0030682 0 -0.0111793 0.999938 0 -0.999965 0.00832938 0 -0.0628458 0.998023 0 -0.222052 0.975035 0 -0.0549934 0.998487 0 -0.999999 0.00134141 0 -0.00528028 0.999986 0 -0.0184184 0.99983 0 -0.335141 0.942168 0 -0.999196 0.0400833 0 -0.999002 0.0446598 0 -0.305727 0.952119 0 -0.915615 0.402056 0 -0.930177 0.367111 0 -0.00391994 0.999992 0 
VECTORS VXM float
-1 1.22465e-16 0 -1 1.22465e-16 0 -0.974928 -0.222521 0 -0.900969 -0.433884 0 -0.781831 -0.62349 0 -0.62349 -0.781831 0 -0.433884 -0.900969 0 -0.222521 -0.974928 0 -1 1.22465e-16 0 -0.974928 -0.222521 0 -0.900969 -0.433884 0 -0.781831 -0.62349 0 -0.62349 -0.781831 0 -0.433884 -0.900969 0 -0.222521 -0.974928 0 -1 1.22465e-16 0 -1 1.22465e-16 0 -0.974928 -0.222521 0 -0.900969 -0.433884 0 -0.781831 -0.62349 0 -0.62349 -0.781831 0 -0.433884 -0.900969 0 -0.222521 -0.974928 0 -1 1.22465e-16 0 -0.974928 -0.222521 0 -0.900969 -0.433884 0 -0.781831 -0.62349 0 -0.62349 -0.781831 0 -0.433884 -0.900969 0 -0.222521 -0.974928 0 -1 1.22465e-16 0 -1 1.22465e-16 0 -1 1.22465e-16 0 -1 1.22465e-16 0 -1 1.22465e-16 0 -1 1.22465e-16 0 -1 1.22465e-16 0 -1 1.22465e-16 0 -1 1.22465e-16 0 -1 1.22465e-16 0 -0.0378683 -0.999283 0 -0.0514338 -0.998676 0 -0.999987 -0.00508961 0 -0.999973 -0.00735058 0 -0.995878 -0.0907011 0 -0.998152 -0.0607737 0 -0.983107 -0.183032 0 -0.970577 -0.240792 0 -0.20085 -0.979622 0 -0.996575 -0.0826945 0 -0.206428 -0.978462 0 -0.99606 -0.0886816 0 -0.99996 -0.00892744 0 -0.99998 -0.00624995 0 -0.99999 -0.00436726 0 -0.999969 -0.00791889 0 -0.999975 -0.00706846 0 -0.999986 -0.00524122 0 -0.321766 -0.946819 0 -0.809289 -0.58741 0 -0.28967 -0.957127 0 -0.810345 -0.585952 0 -0.915016 -0.403418 0 -0.642701 -0.766117 0 -0.907417 -0.420232 0 -0.647239 -0.762287 0 -0.999997 -0.002403 0 -0.999997 -0.00225306 0 -0.999986 -0.00528135 0 -0.0216569 -0.999765 0 -0.997538 -0.0701294 0 -0.978443 -0.206517 0 -0.999093 -0.0425788 0 -0.0030682 -0.999995 0 -0.999938 -0.0111793 0 -0.00832938 -0.999965 0 -0.998023 -0.0628458 0 -0.975035 -0.222052 0 -0.998487 -0.0549934 0 -0.00134141 -0.999999 0 -0.999986 -0.00528028 0 -0.99983 -0.0184184 0 -0.942168 -0.335141 0 -0.0400833 -0.999196 0 -0.0446598 -0.999002 0 -0.952119 -0.305727 0 -0.402056 -0.915615 0 -0.367111 -0.930177 0 -0.999992 -0.00391994 0 
VECTORS VYM float
-1.83697e-16 -1 0 -1.83697e-16 -1 0 0.222521 -0.974928 0 0.433884 -0.900969 0 0.62349 -0.781831 0 0.781831 -0.62349 0 0.900969 -0.433884 0 0.974928 -0.222521 0 -1.83697e-16 -1 0 0.222521 -0.974928 0 0.433884 -0.900969 0 0.62349 -0.781831 0 0.781831 -0.62349 0 0.900969 -0.433884 0 0.974928 -0.222521 0 -1.83697e-16 -1 0 -1.83697e-16 -1 0 0.222521 -0.974928 0 0.433884 -0.900969 0 0.62349 -0.781831 0 0.781831 -0.62349 0 0.900969 -0.433884 0 0.974928 -0.222521 0 -1.83697e-16 -1 0 0.222521 -0.974928 0 0.433884 -0.900969 0 0.62349 -0.781831 0 0.781831 -0.62349 0 0.900969 -0.433884 0 0.974928 -0.222521 0 -1.83697e-16 -1 0 -1.83697e-16 -1 0 -1.83697e-16 -1 0 -1.83697e-16 -1 0 -1.83697e-16 -1 0 -1.83697e-16 -1 0 -1.83697e-16 -1 0 -1.83697e-16 -1 0 -1.83697e-16 -1 0 -1.83697e-16 -1 0 0.999283 -0.0378683 0 0.998676 -0.0514338 0 0.00508961 -0.999987 0 0.00735058 -0.999973 0 0.0907011 -0.995878 0 0.0607737 -0.998152 0 0.183032 -0.983107 0 0.240792 -0.970577 0 0.979622 -0.20085 0 0.0826945 -0.996575 0 0.978462 -0.206428 0 0.0886816 -0.99606 0 0.00892744 -0.99996 0 0.00624995 -0.99998 0 0.00436726 -0.99999 0 0.00791889 -0.999969 0 0.00706846 -0.999975 0 0.00524122 -0.999986 0 0.946819 -0.321766 0 0.58741 -0.809289 0 0.957127 -0.28967 0 0.585952 -0.810345 0 0.403418 -0.915016 0 0.766117 -0.642701 0 0.420232 -0.907417 0 0.762287 -0.647239 0 0.002403 -0.999997 0 0.00225306 -0.999997 0 0.00528135 -0.999986 0 0.999765 -0.0216569 0 0.0701294 -0.997538 0 0.206517 -0.978443 0 0.0425788 -0.999093 0 0.999995 -0.0030682 0 0.0111793 -0.999938 0 0.999965 -0.00832938 0 0.0628458 -0.998023 0 0.222052 -0.975035 0 0.0549934 -0.998487 0 0.999999 -0.00134141 0 0.00528028 -0.999986 0 0.0184184 -0.99983 0 0.335141 -0.942168 0 0.999196 -0.0400833 0 0.999002 -0.0446598 0 0.305727 -0.952119 0 0.915615 -0.402056 0 0.930177 -0.367111 0 0.00391994 -0.999992 0 


CELL_DATA 136
SCALARS GMDS_ID int 1
LOOKUP_TABLE default
0 1 2 3 4 5 6 7 8 9 10 11 12 13 14 15 16 17 18 19 20 21 22 23 24 25 26 27 28 29 30 31 32 33 34 35 36 37 38 39 40 41 42 43 44 45 46 47 48 49 50 51 52 53 54 55 56 57 58 59 60 61 62 63 64 65 66 67 68 69 70 71 72 73 74 75 76 77 78 79 80 81 82 83 84 85 86 87 88 89 90 91 92 93 94 95 96 97 98 99 100 101 102 103 104 105 106 107 108 109 110 111 112 113 114 115 116 117 118 119 120 121 122 123 124 125 126 127 128 129 130 131 132 133 134 135 

SCALARS BND_SURFACE_COLOR int 1
LOOKUP_TABLE default
2 2 2 2 2 2 2 2 2 2 2 2 2 2 2 2 2 2 2 2 2 2 2 2 2 2 2 2 2 2 2 2 2 2 2 2 2 2 2 2 2 2 2 2 2 2 2 2 2 2 2 2 2 2 2 2 2 2 2 2 2 2 2 2 2 2 2 2 2 2 2 2 2 2 2 2 2 2 2 2 2 2 2 2 2 2 2 2 2 2 2 2 2 2 2 2 2 2 2 2 2 2 2 2 2 2 2 2 2 2 2 2 2 2 2 2 2 2 2 2 2 2 2 2 2 2 2 2 2 2 2 2 2 2 2 2 

SCALARS angleDeviation float 1
LOOKUP_TABLE default
0.760039 0.760039 0.598399 0.598399 0.791257 0.791257 0.598399 0.598399 0.0238068 0.0121608 0.124813 0.00502056 0.0211173 0.00714061 0.158335 0.00562508 0.719314 1.64092 0.921611 2.0944 0.724115 1.73563 1.01151 2.0944 1.83655 1.22008 0.687864 0.598399 1.66309 1.15504 0.638661 0.598399 0.00600816 0.00640802 0.00640802 0.0075642 0.00562508 0.00767565 0.00767565 0.0139766 0.706242 0.244922 0.158335 0.187165 0.642093 1.11478 0.598399 1.50732 0.441126 0.441126 0.321777 0.377628 0.170345 0.037994 0.0141901 0.023804 0.132351 0.0969111 0.0162398 0.214584 0.513065 0.189911 0.124813 0.167699 0.599681 1.07716 0.598399 1.43208 0.450393 0.450393 0.374013 0.361603 0.24578 0.0526955 0.0176579 0.0350376 0.193084 0.127874 0.0302691 0.283941 0.911348 0.911348 0.598399 0.598399 0.969369 0.969369 0.911348 0.28545 1.08988 0.598399 0.598399 0.106917 1.08988 0.870008 0.106917 1.11579 1.07766 0.598399 0.598399 0.119132 1.07766 0.775503 0.119132 0.945848 0.828538 0.828538 0.598399 0.598399 0.828538 0.939633 0.368259 0.939633 0.691833 0.642335 0.642335 0.966145 0.773855 1.81946 1.04561 2.0944 0.792792 0.657529 0.657529 0.901398 0.858979 1.83917 0.980192 2.0944 0.0104532 0.0116461 0.0116461 0.00311916 0.0140808 0.00363046 0.00363046 0.00552092 

SCALARS maxAngleDeviation float 1
LOOKUP_TABLE default
1.14006 1.14006 0.897598 0.897598 1.18689 1.18689 0.897598 0.897598 0.0357102 0.0182411 0.18722 0.00753084 0.0316759 0.0107109 0.237502 0.00843762 1.07897 2.46139 1.38242 2.46139 1.08617 2.60344 1.51727 2.60344 2.75483 1.83011 1.0318 0.897598 2.49463 1.73256 0.957991 0.897598 0.00901224 0.00961203 0.00961203 0.0113463 0.00843762 0.0115135 0.0115135 0.020965 1.05936 0.367383 0.237502 0.280748 0.96314 1.67216 0.897598 2.26097 0.661689 0.661689 0.482666 0.566442 0.255518 0.056991 0.0212851 0.0357059 0.198527 0.145367 0.0243596 0.321876 0.769597 0.284867 0.18722 0.251549 0.899522 1.61575 0.897598 2.14812 0.675589 0.675589 0.561019 0.542405 0.368669 0.0790433 0.0264868 0.0525564 0.289626 0.191811 0.0454036 0.425911 1.36702 1.36702 0.897598 0.897598 1.45405 1.45405 1.36702 0.428174 1.63482 0.897598 0.897598 0.160376 1.63482 1.30501 0.160376 1.67368 1.6165 0.897598 0.897598 0.178699 1.6165 1.16325 0.178699 1.41877 1.24281 1.24281 0.897598 0.897598 1.24281 1.40945 0.552389 1.40945 1.03775 0.963503 0.963503 1.44922 1.16078 2.72919 1.56841 2.72919 1.18919 0.986293 0.986293 1.3521 1.28847 2.75876 1.47029 2.75876 0.0156798 0.0174691 0.0174691 0.00467874 0.0211212 0.00544569 0.00544569 0.00828138 

