# vtk DataFile Version 3.0
Generated by GMDS VTK Writer

ASCII
DATASET UNSTRUCTURED_GRID
POINTS 98 float
0 1 0
-0.207912 0.978148 0
-0.406737 0.913545 0
-0.587785 0.809017 0
-0.743145 0.669131 0
-0.866025 0.5 0
-0.951057 0.309017 0
-0.994522 0.104528 0
-0.994522 -0.104528 0
-0.951057 -0.309017 0
-0.866025 -0.5 0
-0.743145 -0.669131 0
-0.587785 -0.809017 0
-0.406737 -0.913545 0
-0.207912 -0.978148 0
-4.68349e-12 -1 0
0.207912 -0.978148 0
0.406737 -0.913545 0
0.587785 -0.809017 0
0.743145 -0.669131 0
0.866025 -0.5 0
0.951057 -0.309017 0
0.994522 -0.104528 0
0.994522 0.104528 0
0.951057 0.309017 0
0.866025 0.5 0
0.743145 0.669131 0
0.587785 0.809017 0
0.406737 0.913545 0
0.207912 0.978148 0
0.102368 -0.338895 0
-0.294704 0.469497 0
-0.577155 -0.266352 0
0.471183 -0.381925 0
-0.0732976 -0.684567 0
0.0457376 0.679532 0
-0.169218 0.00758345 0
-0.248456 -0.40348 0
0.0807506 0.327827 0
-0.620643 0.187203 0
0.288355 0.00848267 0
0.265225 -0.63288 0
0.463513 0.413771 0
0.680553 -0.0436899 0
0.539945 -0.587318 0
0.661751 -0.43673 0
-0.516621 0.565056 0
-0.350209 0.688385 0
-0.74696 -0.405216 0
-0.775265 -0.180167 0
0.0568175 -0.825655 0
-0.155042 -0.854492 0
-0.170885 0.785574 0
0.0175802 0.867142 0
-0.127852 0.584981 0
0.0142777 -0.510971 0
-0.0867251 -0.363026 0
-0.178083 -0.539779 0
-0.236383 0.252656 0
-0.021068 0.199207 0
-0.0857419 0.388547 0
-0.388568 -0.124362 0
-0.407348 0.105267 0
-0.59336 -0.0393712 0
-0.456338 0.333823 0
-0.0127405 -0.176471 0
-0.213818 -0.230555 0
-0.395514 -0.346754 0
0.0710367 0.487664 0
-0.797878 0.0382657 0
-0.815973 0.259783 0
-0.669101 0.419434 0
0.226523 0.780527 0
0.118266 -0.654114 0
0.243662 -0.784682 0
0.194112 -0.498718 0
0.402145 -0.707799 0
0.361578 -0.524743 0
0.286616 -0.347668 0
0.384752 -0.185491 0
0.193497 -0.166134 0
0.0815608 0.0142845 0
0.179526 0.187146 0
-0.571129 -0.507959 0
-0.379458 -0.554635 0
-0.296931 -0.725767 0
0.716961 0.350345 0
0.634652 0.569536 0
0.42911 0.675914 0
0.248146 0.567713 0
0.241129 0.364764 0
0.375602 0.190408 0
0.576962 -0.219585 0
0.483627 -0.0117685 0
0.864462 -0.0800706 0
0.767391 -0.264552 0
0.799179 0.135806 0
0.586935 0.17288 0

CELLS 164 656
3 33 44 45 
3 44 19 45 
3 44 18 19 
3 45 19 20 
3 2 3 47 
3 3 46 47 
3 3 4 46 
3 47 46 31 
3 8 9 49 
3 9 48 49 
3 9 10 48 
3 49 48 32 
3 14 15 51 
3 15 50 51 
3 15 16 50 
3 51 50 34 
3 0 1 53 
3 1 52 53 
3 1 2 52 
3 53 52 35 
3 35 52 54 
3 52 47 54 
3 52 2 47 
3 54 47 31 
3 34 55 57 
3 55 56 57 
3 55 30 56 
3 57 56 37 
3 31 58 60 
3 58 59 60 
3 58 36 59 
3 60 59 38 
3 32 61 63 
3 61 62 63 
3 61 36 62 
3 63 62 39 
3 39 62 64 
3 62 58 64 
3 62 36 58 
3 64 58 31 
3 37 56 66 
3 56 65 66 
3 56 30 65 
3 66 65 36 
3 32 67 61 
3 67 66 61 
3 67 37 66 
3 61 66 36 
3 35 54 68 
3 54 60 68 
3 54 31 60 
3 68 60 38 
3 6 7 70 
3 7 69 70 
3 7 8 69 
3 70 69 39 
3 39 69 63 
3 69 49 63 
3 69 8 49 
3 63 49 32 
3 39 71 70 
3 71 5 70 
3 71 4 5 
3 70 5 6 
3 31 46 64 
3 46 71 64 
3 46 4 71 
3 64 71 39 
3 35 72 53 
3 72 29 53 
3 72 28 29 
3 53 29 0 
3 41 73 74 
3 73 50 74 
3 73 34 50 
3 74 50 16 
3 30 55 75 
3 55 73 75 
3 55 34 73 
3 75 73 41 
3 41 74 76 
3 74 17 76 
3 74 16 17 
3 76 17 18 
3 18 44 76 
3 44 77 76 
3 44 33 77 
3 76 77 41 
3 41 77 75 
3 77 78 75 
3 77 33 78 
3 75 78 30 
3 30 78 80 
3 78 79 80 
3 78 33 79 
3 80 79 40 
3 40 81 80 
3 81 65 80 
3 81 36 65 
3 80 65 30 
3 40 82 81 
3 82 59 81 
3 82 38 59 
3 81 59 36 
3 32 48 83 
3 48 11 83 
3 48 10 11 
3 83 11 12 
3 37 67 84 
3 67 83 84 
3 67 32 83 
3 84 83 12 
3 37 84 57 
3 84 85 57 
3 84 12 85 
3 57 85 34 
3 12 13 85 
3 13 51 85 
3 13 14 51 
3 85 51 34 
3 42 86 87 
3 86 25 87 
3 86 24 25 
3 87 25 26 
3 42 87 88 
3 87 27 88 
3 87 26 27 
3 88 27 28 
3 42 88 89 
3 88 72 89 
3 88 28 72 
3 89 72 35 
3 42 89 90 
3 89 68 90 
3 89 35 68 
3 90 68 38 
3 40 91 82 
3 91 90 82 
3 91 42 90 
3 82 90 38 
3 40 79 93 
3 79 92 93 
3 79 33 92 
3 93 92 43 
3 20 21 95 
3 21 94 95 
3 21 22 94 
3 95 94 43 
3 20 95 45 
3 95 92 45 
3 95 43 92 
3 45 92 33 
3 43 94 96 
3 94 23 96 
3 94 22 23 
3 96 23 24 
3 24 86 96 
3 86 97 96 
3 86 42 97 
3 96 97 43 
3 43 97 93 
3 97 91 93 
3 97 42 91 
3 93 91 40 

CELL_TYPES 164
5 
5 
5 
5 
5 
5 
5 
5 
5 
5 
5 
5 
5 
5 
5 
5 
5 
5 
5 
5 
5 
5 
5 
5 
5 
5 
5 
5 
5 
5 
5 
5 
5 
5 
5 
5 
5 
5 
5 
5 
5 
5 
5 
5 
5 
5 
5 
5 
5 
5 
5 
5 
5 
5 
5 
5 
5 
5 
5 
5 
5 
5 
5 
5 
5 
5 
5 
5 
5 
5 
5 
5 
5 
5 
5 
5 
5 
5 
5 
5 
5 
5 
5 
5 
5 
5 
5 
5 
5 
5 
5 
5 
5 
5 
5 
5 
5 
5 
5 
5 
5 
5 
5 
5 
5 
5 
5 
5 
5 
5 
5 
5 
5 
5 
5 
5 
5 
5 
5 
5 
5 
5 
5 
5 
5 
5 
5 
5 
5 
5 
5 
5 
5 
5 
5 
5 
5 
5 
5 
5 
5 
5 
5 
5 
5 
5 
5 
5 
5 
5 
5 
5 
5 
5 
5 
5 
5 
5 
5 
5 
5 
5 
5 
5 
POINT_DATA 98
SCALARS GMDS_ID int 1
LOOKUP_TABLE default
0 1 2 3 4 5 6 7 8 9 10 11 12 13 14 15 16 17 18 19 20 21 22 23 24 25 26 27 28 29 30 31 32 33 34 35 36 37 38 39 40 41 42 43 44 45 46 47 48 49 50 51 52 53 54 55 56 57 58 59 60 61 62 63 64 65 66 67 68 69 70 71 72 73 74 75 76 77 78 79 80 81 82 83 84 85 86 87 88 89 90 91 92 93 94 95 96 97 
SCALARS angle float 1
LOOKUP_TABLE default
-0 0.837758 1.67552 2.51327 3.35103 4.18879 5.02655 5.86431 0.418879 1.25664 2.0944 2.93215 3.76991 4.60767 5.44543 -0 0.837758 1.67552 2.51327 3.35103 4.18879 5.02655 5.86431 0.418879 1.25664 2.0944 2.93215 3.76991 4.60767 5.44543 0.443693 2.49477 1.87454 3.53016 5.63776 5.81133 4.79299 4.58118 4.9943 5.0098 6.25663 1.54656 3.00406 6.20415 2.69733 4.09969 3.18907 1.79852 2.09008 0.687066 0.5621 5.45906 0.895123 6.13156 0.683601 6.14338 5.10049 4.99821 4.06277 4.83588 5.54185 5.17133 4.90612 0.100007 3.83561 5.07793 4.6675 3.8526 5.37194 6.27161 4.98895 3.86434 4.87962 0.913196 1.26073 1.40007 2.15086 2.13182 2.14357 5.20956 5.84641 5.14841 4.88523 3.3632 4.27643 4.86316 1.58469 2.98708 4.26681 4.66517 4.2602 1.58417 4.99263 0.153308 5.98345 4.917 0.942032 1.11693 
VECTORS cross_X float
1 0 0 0.978148 0.207912 0 0.913545 0.406737 0 0.809017 0.587785 0 0.669131 0.743145 0 0.5 0.866025 0 0.309017 0.951057 0 0.104528 0.994522 0 0.994522 0.104528 0 0.951057 0.309017 0 0.866025 0.5 0 0.743145 0.669131 0 0.587785 0.809017 0 0.406737 0.913545 0 0.207912 0.978148 0 1 0 0 0.978148 0.207912 0 0.913545 0.406737 0 0.809017 0.587785 0 0.669131 0.743145 0 0.5 0.866025 0 0.309017 0.951057 0 0.104528 0.994522 0 0.994522 0.104528 0 0.951057 0.309017 0 0.866025 0.5 0 0.743145 0.669131 0 0.587785 0.809017 0 0.406737 0.913545 0 0.207912 0.978148 0 0.993854 0.110696 0 0.811728 0.584036 0 0.892185 0.451669 0 0.635191 0.772355 0 0.160656 0.98701 0 0.117691 0.99305 0 0.363991 0.931403 0 0.412778 0.910831 0 0.316675 0.948534 0 0.312995 0.949755 0 0.00663756 0.999978 0 0.926181 0.377079 0 0.730996 0.682382 0 0.0197574 0.999805 0 0.781124 0.624376 0 0.519164 0.854675 0 0.698663 0.71545 0 0.900608 0.434633 0 0.866564 0.499066 0 0.985284 0.170923 0 0.990143 0.140063 0 0.204576 0.978851 0 0.975065 0.221918 0 0.037896 0.999282 0 0.985432 0.17007 0 0.0349431 0.999389 0 0.291385 0.956606 0 0.315747 0.948844 0 0.527032 0.849845 0 0.353983 0.935252 0 0.184275 0.982875 0 0.274399 0.961616 0 0.337506 0.941323 0 0.999687 0.024999 0 0.574418 0.818562 0 0.296775 0.954947 0 0.393027 0.919527 0 0.570936 0.820995 0 0.225845 0.974163 0 0.00289308 0.999996 0 0.317944 0.94811 0 0.568525 0.822666 0 0.343735 0.939067 0 0.974053 0.226321 0 0.95074 0.30999 0 0.939366 0.342915 0 0.858882 0.512174 0 0.86131 0.50808 0 0.859813 0.510609 0 0.265194 0.964195 0 0.108978 0.994044 0 0.279904 0.960028 0 0.342419 0.939547 0 0.666868 0.745176 0 0.480908 0.876771 0 0.347596 0.937644 0 0.922545 0.38589 0 0.733886 0.679272 0 0.483014 0.875613 0 0.393563 0.919297 0 0.484461 0.874813 0 0.922595 0.385769 0 0.317071 0.948402 0 0.999266 0.0383176 0 0.0748631 0.997194 0 0.334945 0.942238 0 0.972396 0.233337 0 0.961267 0.275619 0 
VECTORS VY float
6.12323e-17 1 0 -0.207912 0.978148 0 -0.406737 0.913545 0 -0.587785 0.809017 0 -0.743145 0.669131 0 -0.866025 0.5 0 -0.951057 0.309017 0 -0.994522 0.104528 0 -0.104528 0.994522 0 -0.309017 0.951057 0 -0.5 0.866025 0 -0.669131 0.743145 0 -0.809017 0.587785 0 -0.913545 0.406737 0 -0.978148 0.207912 0 6.12323e-17 1 0 -0.207912 0.978148 0 -0.406737 0.913545 0 -0.587785 0.809017 0 -0.743145 0.669131 0 -0.866025 0.5 0 -0.951057 0.309017 0 -0.994522 0.104528 0 -0.104528 0.994522 0 -0.309017 0.951057 0 -0.5 0.866025 0 -0.669131 0.743145 0 -0.809017 0.587785 0 -0.913545 0.406737 0 -0.978148 0.207912 0 -0.110696 0.993854 0 -0.584036 0.811728 0 -0.451669 0.892185 0 -0.772355 0.635191 0 -0.98701 0.160656 0 -0.99305 0.117691 0 -0.931403 0.363991 0 -0.910831 0.412778 0 -0.948534 0.316675 0 -0.949755 0.312995 0 -0.999978 0.00663756 0 -0.377079 0.926181 0 -0.682382 0.730996 0 -0.999805 0.0197574 0 -0.624376 0.781124 0 -0.854675 0.519164 0 -0.71545 0.698663 0 -0.434633 0.900608 0 -0.499066 0.866564 0 -0.170923 0.985284 0 -0.140063 0.990143 0 -0.978851 0.204576 0 -0.221918 0.975065 0 -0.999282 0.037896 0 -0.17007 0.985432 0 -0.999389 0.0349431 0 -0.956606 0.291385 0 -0.948844 0.315747 0 -0.849845 0.527032 0 -0.935252 0.353983 0 -0.982875 0.184275 0 -0.961616 0.274399 0 -0.941323 0.337506 0 -0.024999 0.999687 0 -0.818562 0.574418 0 -0.954947 0.296775 0 -0.919527 0.393027 0 -0.820995 0.570936 0 -0.974163 0.225845 0 -0.999996 0.00289308 0 -0.94811 0.317944 0 -0.822666 0.568525 0 -0.939067 0.343735 0 -0.226321 0.974053 0 -0.30999 0.95074 0 -0.342915 0.939366 0 -0.512174 0.858882 0 -0.50808 0.86131 0 -0.510609 0.859813 0 -0.964195 0.265194 0 -0.994044 0.108978 0 -0.960028 0.279904 0 -0.939547 0.342419 0 -0.745176 0.666868 0 -0.876771 0.480908 0 -0.937644 0.347596 0 -0.38589 0.922545 0 -0.679272 0.733886 0 -0.875613 0.483014 0 -0.919297 0.393563 0 -0.874813 0.484461 0 -0.385769 0.922595 0 -0.948402 0.317071 0 -0.0383176 0.999266 0 -0.997194 0.0748631 0 -0.942238 0.334945 0 -0.233337 0.972396 0 -0.275619 0.961267 0 
VECTORS VXM float
-1 1.22465e-16 0 -0.978148 -0.207912 0 -0.913545 -0.406737 0 -0.809017 -0.587785 0 -0.669131 -0.743145 0 -0.5 -0.866025 0 -0.309017 -0.951057 0 -0.104528 -0.994522 0 -0.994522 -0.104528 0 -0.951057 -0.309017 0 -0.866025 -0.5 0 -0.743145 -0.669131 0 -0.587785 -0.809017 0 -0.406737 -0.913545 0 -0.207912 -0.978148 0 -1 1.22465e-16 0 -0.978148 -0.207912 0 -0.913545 -0.406737 0 -0.809017 -0.587785 0 -0.669131 -0.743145 0 -0.5 -0.866025 0 -0.309017 -0.951057 0 -0.104528 -0.994522 0 -0.994522 -0.104528 0 -0.951057 -0.309017 0 -0.866025 -0.5 0 -0.743145 -0.669131 0 -0.587785 -0.809017 0 -0.406737 -0.913545 0 -0.207912 -0.978148 0 -0.993854 -0.110696 0 -0.811728 -0.584036 0 -0.892185 -0.451669 0 -0.635191 -0.772355 0 -0.160656 -0.98701 0 -0.117691 -0.99305 0 -0.363991 -0.931403 0 -0.412778 -0.910831 0 -0.316675 -0.948534 0 -0.312995 -0.949755 0 -0.00663756 -0.999978 0 -0.926181 -0.377079 0 -0.730996 -0.682382 0 -0.0197574 -0.999805 0 -0.781124 -0.624376 0 -0.519164 -0.854675 0 -0.698663 -0.71545 0 -0.900608 -0.434633 0 -0.866564 -0.499066 0 -0.985284 -0.170923 0 -0.990143 -0.140063 0 -0.204576 -0.978851 0 -0.975065 -0.221918 0 -0.037896 -0.999282 0 -0.985432 -0.17007 0 -0.0349431 -0.999389 0 -0.291385 -0.956606 0 -0.315747 -0.948844 0 -0.527032 -0.849845 0 -0.353983 -0.935252 0 -0.184275 -0.982875 0 -0.274399 -0.961616 0 -0.337506 -0.941323 0 -0.999687 -0.024999 0 -0.574418 -0.818562 0 -0.296775 -0.954947 0 -0.393027 -0.919527 0 -0.570936 -0.820995 0 -0.225845 -0.974163 0 -0.00289308 -0.999996 0 -0.317944 -0.94811 0 -0.568525 -0.822666 0 -0.343735 -0.939067 0 -0.974053 -0.226321 0 -0.95074 -0.30999 0 -0.939366 -0.342915 0 -0.858882 -0.512174 0 -0.86131 -0.50808 0 -0.859813 -0.510609 0 -0.265194 -0.964195 0 -0.108978 -0.994044 0 -0.279904 -0.960028 0 -0.342419 -0.939547 0 -0.666868 -0.745176 0 -0.480908 -0.876771 0 -0.347596 -0.937644 0 -0.922545 -0.38589 0 -0.733886 -0.679272 0 -0.483014 -0.875613 0 -0.393563 -0.919297 0 -0.484461 -0.874813 0 -0.922595 -0.385769 0 -0.317071 -0.948402 0 -0.999266 -0.0383176 0 -0.0748631 -0.997194 0 -0.334945 -0.942238 0 -0.972396 -0.233337 0 -0.961267 -0.275619 0 
VECTORS VYM float
-1.83697e-16 -1 0 0.207912 -0.978148 0 0.406737 -0.913545 0 0.587785 -0.809017 0 0.743145 -0.669131 0 0.866025 -0.5 0 0.951057 -0.309017 0 0.994522 -0.104528 0 0.104528 -0.994522 0 0.309017 -0.951057 0 0.5 -0.866025 0 0.669131 -0.743145 0 0.809017 -0.587785 0 0.913545 -0.406737 0 0.978148 -0.207912 0 -1.83697e-16 -1 0 0.207912 -0.978148 0 0.406737 -0.913545 0 0.587785 -0.809017 0 0.743145 -0.669131 0 0.866025 -0.5 0 0.951057 -0.309017 0 0.994522 -0.104528 0 0.104528 -0.994522 0 0.309017 -0.951057 0 0.5 -0.866025 0 0.669131 -0.743145 0 0.809017 -0.587785 0 0.913545 -0.406737 0 0.978148 -0.207912 0 0.110696 -0.993854 0 0.584036 -0.811728 0 0.451669 -0.892185 0 0.772355 -0.635191 0 0.98701 -0.160656 0 0.99305 -0.117691 0 0.931403 -0.363991 0 0.910831 -0.412778 0 0.948534 -0.316675 0 0.949755 -0.312995 0 0.999978 -0.00663756 0 0.377079 -0.926181 0 0.682382 -0.730996 0 0.999805 -0.0197574 0 0.624376 -0.781124 0 0.854675 -0.519164 0 0.71545 -0.698663 0 0.434633 -0.900608 0 0.499066 -0.866564 0 0.170923 -0.985284 0 0.140063 -0.990143 0 0.978851 -0.204576 0 0.221918 -0.975065 0 0.999282 -0.037896 0 0.17007 -0.985432 0 0.999389 -0.0349431 0 0.956606 -0.291385 0 0.948844 -0.315747 0 0.849845 -0.527032 0 0.935252 -0.353983 0 0.982875 -0.184275 0 0.961616 -0.274399 0 0.941323 -0.337506 0 0.024999 -0.999687 0 0.818562 -0.574418 0 0.954947 -0.296775 0 0.919527 -0.393027 0 0.820995 -0.570936 0 0.974163 -0.225845 0 0.999996 -0.00289308 0 0.94811 -0.317944 0 0.822666 -0.568525 0 0.939067 -0.343735 0 0.226321 -0.974053 0 0.30999 -0.95074 0 0.342915 -0.939366 0 0.512174 -0.858882 0 0.50808 -0.86131 0 0.510609 -0.859813 0 0.964195 -0.265194 0 0.994044 -0.108978 0 0.960028 -0.279904 0 0.939547 -0.342419 0 0.745176 -0.666868 0 0.876771 -0.480908 0 0.937644 -0.347596 0 0.38589 -0.922545 0 0.679272 -0.733886 0 0.875613 -0.483014 0 0.919297 -0.393563 0 0.874813 -0.484461 0 0.385769 -0.922595 0 0.948402 -0.317071 0 0.0383176 -0.999266 0 0.997194 -0.0748631 0 0.942238 -0.334945 0 0.233337 -0.972396 0 0.275619 -0.961267 0 


CELL_DATA 164
SCALARS GMDS_ID int 1
LOOKUP_TABLE default
0 1 2 3 4 5 6 7 8 9 10 11 12 13 14 15 16 17 18 19 20 21 22 23 24 25 26 27 28 29 30 31 32 33 34 35 36 37 38 39 40 41 42 43 44 45 46 47 48 49 50 51 52 53 54 55 56 57 58 59 60 61 62 63 64 65 66 67 68 69 70 71 72 73 74 75 76 77 78 79 80 81 82 83 84 85 86 87 88 89 90 91 92 93 94 95 96 97 98 99 100 101 102 103 104 105 106 107 108 109 110 111 112 113 114 115 116 117 118 119 120 121 122 123 124 125 126 127 128 129 130 131 132 133 134 135 136 137 138 139 140 141 142 143 144 145 146 147 148 149 150 151 152 153 154 155 156 157 158 159 160 161 162 163 

SCALARS BND_SURFACE_COLOR int 1
LOOKUP_TABLE default
2 2 2 2 2 2 2 2 2 2 2 2 2 2 2 2 2 2 2 2 2 2 2 2 2 2 2 2 2 2 2 2 2 2 2 2 2 2 2 2 2 2 2 2 2 2 2 2 2 2 2 2 2 2 2 2 2 2 2 2 2 2 2 2 2 2 2 2 2 2 2 2 2 2 2 2 2 2 2 2 2 2 2 2 2 2 2 2 2 2 2 2 2 2 2 2 2 2 2 2 2 2 2 2 2 2 2 2 2 2 2 2 2 2 2 2 2 2 2 2 2 2 2 2 2 2 2 2 2 2 2 2 2 2 2 2 2 2 2 2 2 2 2 2 2 2 2 2 2 2 2 2 2 2 2 2 2 2 2 2 2 2 2 2 

SCALARS angleDeviation float 1
LOOKUP_TABLE default
0.934911 0.934911 0.558505 0.558505 0.558505 0.927035 0.558505 0.927035 0.558505 0.935344 0.558505 0.935344 0.558505 0.924149 0.558505 0.924149 0.659586 0.697829 0.558505 0.911321 0.911321 0.743281 0.602266 1.20745 0.763448 0.763448 1.08426 0.346208 2.03139 0.986055 0.515407 0.470648 1.99093 0.984715 0.252227 0.984715 0.782794 0.713671 0.562234 1.04533 0.346208 0.288658 1.0993 0.273619 2.0944 0.87915 0.543264 0.335885 1.06323 1.06323 2.0944 0.365035 0.583573 0.855111 0.558505 0.855111 0.915592 0.465759 0.465759 1.18302 0.763644 0.749738 0.558505 0.558505 0.893896 0.450176 0.450176 0.782794 0.834629 0.834629 0.558505 0.558505 0.422244 0.465753 1.03908 0.465753 1.02658 1.02658 1.03908 0.422244 0.593418 0.593418 0.558505 0.558505 0.364314 0.377008 0.93223 0.402864 0.487828 0.495664 0.93223 1.13325 1.72023 2.0944 2.044 0.698048 0.738816 0.512319 0.236948 1.0993 0.914273 0.208355 0.105613 0.236948 0.992436 0.848743 0.561381 0.558505 0.485714 0.60882 1.31871 0.60882 0.48119 0.48119 0.728832 0.516404 0.728832 0.567595 0.567595 0.516404 0.946249 0.934929 0.558505 0.595125 0.853152 0.853152 0.558505 0.558505 1.1074 0.40854 0.40854 0.764107 1.1074 0.741164 0.764107 0.741164 1.98808 2.0944 1.78402 0.489401 0.817953 0.962578 1.1196 0.962578 0.558505 0.710969 0.637936 0.858101 0.54487 0.595288 0.858101 0.974977 0.827843 0.827843 0.558505 0.558505 0.428438 0.428438 1.25809 0.797312 0.797312 0.953906 1.25809 1.07381 

SCALARS maxAngleDeviation float 1
LOOKUP_TABLE default
1.40237 1.40237 0.837758 0.837758 0.837758 1.39055 0.837758 1.39055 0.837758 1.40302 0.837758 1.40302 0.837758 1.38622 0.837758 1.38622 0.989378 1.04674 0.837758 1.36698 1.36698 1.11492 0.903399 1.81117 1.14517 1.14517 1.62639 0.519312 3.04708 1.47908 0.77311 0.705972 2.9864 1.47707 0.37834 1.47707 1.17419 1.07051 0.843351 1.568 0.519312 0.432987 1.64895 0.410428 2.9864 1.31872 0.814896 0.503828 1.59484 1.59484 3.04708 0.547552 0.87536 1.28267 0.837758 1.28267 1.37339 0.698638 0.698638 1.77454 1.14547 1.12461 0.837758 0.837758 1.34084 0.675265 0.675265 1.17419 1.25194 1.25194 0.837758 0.837758 0.633365 0.698629 1.55862 0.698629 1.53988 1.53988 1.55862 0.633365 0.890128 0.890128 0.837758 0.837758 0.546471 0.565512 1.39834 0.604296 0.731742 0.743496 1.39834 1.69988 2.58035 3.06599 3.06599 1.04707 1.10822 0.768479 0.355422 1.64895 1.37141 0.312532 0.15842 0.355422 1.48865 1.27311 0.842072 0.837758 0.728572 0.91323 1.97806 0.91323 0.721786 0.721786 1.09325 0.774605 1.09325 0.851393 0.851393 0.774605 1.41937 1.40239 0.837758 0.892688 1.27973 1.27973 0.837758 0.837758 1.6611 0.612809 0.612809 1.14616 1.6611 1.11175 1.14616 1.11175 2.98213 2.98213 2.67603 0.734102 1.22693 1.44387 1.6794 1.44387 0.837758 1.06645 0.956904 1.28715 0.817305 0.892932 1.28715 1.46247 1.24176 1.24176 0.837758 0.837758 0.642658 0.642658 1.88713 1.19597 1.19597 1.43086 1.88713 1.61072 

