# vtk DataFile Version 3.0
Generated by GMDS VTK Writer

ASCII
DATASET UNSTRUCTURED_GRID
POINTS 239 float
1 0 0
-1 0 0
0.991445 0.130526 0
0.965926 0.258819 0
0.92388 0.382683 0
0.866025 0.5 0
0.793353 0.608761 0
0.707107 0.707107 0
0.608761 0.793353 0
0.5 0.866025 0
0.382683 0.92388 0
0.258819 0.965926 0
0.130526 0.991445 0
1.28015e-12 1 0
-0.130526 0.991445 0
-0.258819 0.965926 0
-0.382683 0.92388 0
-0.5 0.866025 0
-0.608761 0.793353 0
-0.707107 0.707107 0
-0.793353 0.608761 0
-0.866025 0.5 0
-0.92388 0.382683 0
-0.965926 0.258819 0
-0.991445 0.130526 0
-1 2 0
1 2 0
0.756848 1.85605 0
0.520726 1.70056 0
0.273237 1.56446 0
3.0993e-12 1.5 0
-0.273237 1.56446 0
-0.520726 1.70056 0
-0.756848 1.85605 0
2 2 0
2 0 0
2.13053 0.00855514 0
2.25882 0.0340742 0
2.38268 0.0761205 0
2.5 0.133975 0
2.60876 0.206647 0
2.70711 0.292893 0
2.79335 0.391239 0
2.86603 0.5 0
2.92388 0.617317 0
2.96593 0.741181 0
2.99144 0.869474 0
3 1 0
2.99144 1.13053 0
2.96593 1.25882 0
2.92388 1.38268 0
2.86603 1.5 0
2.79335 1.60876 0
2.70711 1.70711 0
2.60876 1.79335 0
2.5 1.86603 0
2.38268 1.92388 0
2.25882 1.96593 0
2.13053 1.99144 0
1.25 2 0
1.5 2 0
1.75 2 0
1.75 0 0
1.5 0 0
1.25 0 0
-2 0 0
-1.25 0 0
-1.5 0 0
-1.75 0 0
-2 2 0
-2 0.5 0
-2 1 0
-2 1.5 0
-1.75 2 0
-1.5 2 0
-1.25 2 0
2.21195 0.649953 0
2.57474 1.15203 0
1.36513 0.760001 0
1.94755 1.39821 0
-1.4716 0.503556 0
-0.328644 1.24605 0
0.00165121 1.15423 0
0.341748 1.25443 0
2.38123 0.338686 0
2.05801 0.347843 0
2.54275 0.585938 0
2.74188 1.36237 0
2.825 1.05569 0
2.69471 0.824124 0
2.39432 0.913676 0
2.50747 1.496 0
1.01094 0.579085 0
1.25379 0.32367 0
2.05553 1.01045 0
2.28585 1.2655 0
1.53897 1.59123 0
1.91242 1.76592 0
1.66912 0.355546 0
1.83854 0.709063 0
2.23556 1.62589 0
0.921772 0.928998 0
1.65886 1.12945 0
-1.48424 1.21911 0
-0.681831 1.30012 0
-1.0435 1.28816 0
0.750177 1.33893 0
1.20639 1.28573 0
-1.73988 0.323067 0
-1.48396 0.221699 0
-1.21095 0.348993 0
-1.23365 0.159735 0
-1.19065 0.574824 0
-0.428543 1.07589 0
-0.281904 1.08299 0
-0.156222 1.20811 0
-0.137501 1.07544 0
-0.193696 1.37979 0
0.00177492 1.30617 0
0.000601692 1.0483 0
0.287945 1.08663 0
0.446452 1.08985 0
0.139959 1.0762 0
0.16158 1.21021 0
0.199172 1.38241 0
2.29796 0.486734 0
2.22396 0.343563 0
2.12875 0.504786 0
2.31102 0.198571 0
2.16534 0.185184 0
2.45382 0.213269 0
2.00777 0.178632 0
2.53948 0.325088 0
2.46111 0.464866 0
2.62468 0.434285 0
2.38014 0.619644 0
2.70383 0.54635 0
2.66031 1.26191 0
2.77892 1.20767 0
2.7047 1.10085 0
2.8526 1.30339 0
2.89042 1.16265 0
2.81552 1.44709 0
2.9303 1.02 0
2.77405 0.662254 0
2.83411 0.781221 0
2.76179 0.941596 0
2.88454 0.901487 0
2.62831 0.98686 0
2.62156 0.705214 0
2.46493 0.745933 0
2.54836 0.868208 0
2.30194 0.785451 0
2.48586 1.03554 0
2.61062 1.6047 0
2.49588 1.67738 0
2.71604 1.52626 0
2.62835 1.42851 0
2.53416 1.32114 0
0.911697 0.524853 0
1.00648 0.417454 0
1.13892 0.465184 0
1.08575 0.291739 0
1.15745 0.657173 0
1.31647 0.516828 0
1.15812 0.152422 0
2.12939 0.825147 0
2.2309 0.960483 0
2.17058 1.14225 0
2.33384 1.08724 0
1.99391 1.20282 0
2.12395 1.32789 0
2.43552 1.20717 0
1.75374 1.48306 0
1.72484 1.68518 0
1.91901 1.58945 0
1.50471 1.81471 0
1.72117 1.863 0
1.29551 1.74212 0
1.93461 1.9123 0
1.5289 0.542822 0
1.45507 0.347259 0
1.59337 0.174681 0
1.36839 0.16661 0
1.81619 0.177125 0
1.94662 0.521854 0
2.03307 0.679406 0
1.87449 0.353204 0
1.74628 0.537037 0
1.62221 0.737426 0
2.37138 1.74258 0
2.23722 1.80063 0
2.08184 1.69143 0
2.09272 1.85442 0
2.09344 1.51308 0
2.37695 1.5617 0
2.39876 1.3828 0
2.25245 1.44607 0
0.867814 0.660581 0
0.800854 0.795377 0
0.98183 0.748582 0
0.717272 0.936263 0
1.12869 0.870651 0
1.86531 1.06562 0
1.80167 1.273 0
1.94348 0.8668 0
1.74058 0.911791 0
1.51779 0.962632 0
-1.74449 1.5789 0
-1.7384 1.14177 0
-1.47029 0.838846 0
-1.73628 0.717443 0
-1.20887 0.883931 0
-0.572876 1.05619 0
-0.505644 1.27743 0
-0.616025 1.53227 0
-0.406312 1.45047 0
-0.825128 1.60579 0
-1.00123 0.918562 0
-0.852276 0.974934 0
-0.858624 1.30517 0
-0.713356 1.02285 0
-1.03957 1.63879 0
-1.24877 1.259 0
-1.49786 1.61474 0
-1.26291 1.63335 0
0.873241 1.61097 0
0.642662 1.54447 0
0.538072 1.29946 0
0.419027 1.45782 0
0.631924 1.10955 0
0.842174 1.12601 0
0.974496 1.34075 0
1.05968 1.09771 0
1.11854 1.57496 0
1.28553 1.03085 0
1.59197 1.35801 0
1.43704 1.20536 0
1.36433 1.46076 0

CELLS 400 1600
3 65 108 68 
3 108 109 68 
3 108 80 109 
3 68 109 67 
3 80 110 109 
3 110 111 109 
3 110 23 111 
3 109 111 67 
3 80 112 110 
3 112 22 110 
3 112 21 22 
3 110 22 23 
3 67 111 66 
3 111 24 66 
3 111 23 24 
3 66 24 1 
3 17 113 16 
3 113 114 16 
3 113 81 114 
3 16 114 15 
3 81 115 114 
3 115 116 114 
3 115 82 116 
3 114 116 15 
3 81 117 115 
3 117 118 115 
3 117 30 118 
3 115 118 82 
3 15 116 14 
3 116 119 14 
3 116 82 119 
3 14 119 13 
3 9 10 121 
3 10 120 121 
3 10 11 120 
3 121 120 83 
3 11 122 120 
3 122 123 120 
3 122 82 123 
3 120 123 83 
3 11 12 122 
3 12 119 122 
3 12 13 119 
3 122 119 82 
3 83 123 124 
3 123 118 124 
3 123 82 118 
3 124 118 30 
3 76 125 127 
3 125 126 127 
3 125 84 126 
3 127 126 85 
3 84 128 126 
3 128 129 126 
3 128 37 129 
3 126 129 85 
3 84 130 128 
3 130 38 128 
3 130 39 38 
3 128 38 37 
3 85 129 131 
3 129 36 131 
3 129 37 36 
3 131 36 35 
3 39 130 40 
3 130 132 40 
3 130 84 132 
3 40 132 41 
3 84 133 132 
3 133 134 132 
3 133 86 134 
3 132 134 41 
3 84 125 133 
3 125 135 133 
3 125 76 135 
3 133 135 86 
3 41 134 42 
3 134 136 42 
3 134 86 136 
3 42 136 43 
3 77 137 139 
3 137 138 139 
3 137 87 138 
3 139 138 88 
3 87 140 138 
3 140 141 138 
3 140 49 141 
3 138 141 88 
3 87 142 140 
3 142 50 140 
3 142 51 50 
3 140 50 49 
3 88 141 143 
3 141 48 143 
3 141 49 48 
3 143 48 47 
3 43 144 44 
3 144 145 44 
3 144 89 145 
3 44 145 45 
3 89 146 145 
3 146 147 145 
3 146 88 147 
3 145 147 45 
3 89 148 146 
3 148 139 146 
3 148 77 139 
3 146 139 88 
3 45 147 46 
3 147 143 46 
3 147 88 143 
3 46 143 47 
3 43 136 144 
3 136 149 144 
3 136 86 149 
3 144 149 89 
3 86 150 149 
3 150 151 149 
3 150 90 151 
3 149 151 89 
3 86 135 150 
3 135 152 150 
3 135 76 152 
3 150 152 90 
3 89 151 148 
3 151 153 148 
3 151 90 153 
3 148 153 77 
3 55 54 155 
3 54 154 155 
3 54 53 154 
3 155 154 91 
3 53 156 154 
3 156 157 154 
3 156 87 157 
3 154 157 91 
3 53 52 156 
3 52 142 156 
3 52 51 142 
3 156 142 87 
3 91 157 158 
3 157 137 158 
3 157 87 137 
3 158 137 77 
3 5 159 4 
3 159 160 4 
3 159 92 160 
3 4 160 3 
3 92 161 160 
3 161 162 160 
3 161 93 162 
3 160 162 3 
3 92 163 161 
3 163 164 161 
3 163 78 164 
3 161 164 93 
3 3 162 2 
3 162 165 2 
3 162 93 165 
3 2 165 0 
3 76 166 152 
3 166 167 152 
3 166 94 167 
3 152 167 90 
3 94 168 167 
3 168 169 167 
3 168 95 169 
3 167 169 90 
3 94 170 168 
3 170 171 168 
3 170 79 171 
3 168 171 95 
3 90 169 153 
3 169 172 153 
3 169 95 172 
3 153 172 77 
3 79 173 175 
3 173 174 175 
3 173 96 174 
3 175 174 97 
3 96 176 174 
3 176 177 174 
3 176 60 177 
3 174 177 97 
3 96 178 176 
3 178 59 176 
3 178 26 59 
3 176 59 60 
3 97 177 179 
3 177 61 179 
3 177 60 61 
3 179 61 34 
3 78 180 164 
3 180 181 164 
3 180 98 181 
3 164 181 93 
3 98 182 181 
3 182 183 181 
3 182 63 183 
3 181 183 93 
3 98 184 182 
3 184 62 182 
3 184 35 62 
3 182 62 63 
3 93 183 165 
3 183 64 165 
3 183 63 64 
3 165 64 0 
3 76 127 186 
3 127 185 186 
3 127 85 185 
3 186 185 99 
3 85 187 185 
3 187 188 185 
3 187 98 188 
3 185 188 99 
3 85 131 187 
3 131 184 187 
3 131 35 184 
3 187 184 98 
3 99 188 189 
3 188 180 189 
3 188 98 180 
3 189 180 78 
3 55 190 56 
3 190 191 56 
3 190 100 191 
3 56 191 57 
3 100 192 191 
3 192 193 191 
3 192 97 193 
3 191 193 57 
3 100 194 192 
3 194 175 192 
3 194 79 175 
3 192 175 97 
3 57 193 58 
3 193 179 58 
3 193 97 179 
3 58 179 34 
3 55 155 190 
3 155 195 190 
3 155 91 195 
3 190 195 100 
3 91 196 195 
3 196 197 195 
3 196 95 197 
3 195 197 100 
3 91 158 196 
3 158 172 196 
3 158 77 172 
3 196 172 95 
3 100 197 194 
3 197 171 194 
3 197 95 171 
3 194 171 79 
3 5 6 159 
3 6 198 159 
3 6 7 198 
3 159 198 92 
3 7 199 198 
3 199 200 198 
3 199 101 200 
3 198 200 92 
3 7 8 199 
3 8 201 199 
3 8 9 201 
3 199 201 101 
3 92 200 163 
3 200 202 163 
3 200 101 202 
3 163 202 78 
3 79 170 204 
3 170 203 204 
3 170 94 203 
3 204 203 102 
3 94 205 203 
3 205 206 203 
3 205 99 206 
3 203 206 102 
3 94 166 205 
3 166 186 205 
3 166 76 186 
3 205 186 99 
3 102 206 207 
3 206 189 207 
3 206 99 189 
3 207 189 78 
3 69 208 72 
3 208 209 72 
3 208 103 209 
3 72 209 71 
3 103 210 209 
3 210 211 209 
3 210 80 211 
3 209 211 71 
3 103 212 210 
3 212 112 210 
3 212 21 112 
3 210 112 80 
3 71 211 70 
3 211 108 70 
3 211 80 108 
3 70 108 65 
3 17 213 113 
3 213 214 113 
3 213 104 214 
3 113 214 81 
3 104 215 214 
3 215 216 214 
3 215 32 216 
3 214 216 81 
3 104 217 215 
3 217 33 215 
3 217 25 33 
3 215 33 32 
3 81 216 117 
3 216 31 117 
3 216 32 31 
3 117 31 30 
3 21 218 20 
3 218 219 20 
3 218 105 219 
3 20 219 19 
3 105 220 219 
3 220 221 219 
3 220 104 221 
3 219 221 19 
3 105 222 220 
3 222 217 220 
3 222 25 217 
3 220 217 104 
3 19 221 18 
3 221 213 18 
3 221 104 213 
3 18 213 17 
3 21 212 218 
3 212 223 218 
3 212 103 223 
3 218 223 105 
3 103 224 223 
3 224 225 223 
3 224 74 225 
3 223 225 105 
3 103 208 224 
3 208 73 224 
3 208 69 73 
3 224 73 74 
3 105 225 222 
3 225 75 222 
3 225 74 75 
3 222 75 25 
3 26 226 27 
3 226 227 27 
3 226 106 227 
3 27 227 28 
3 106 228 227 
3 228 229 227 
3 228 83 229 
3 227 229 28 
3 106 230 228 
3 230 121 228 
3 230 9 121 
3 228 121 83 
3 28 229 29 
3 229 124 29 
3 229 83 124 
3 29 124 30 
3 9 230 201 
3 230 231 201 
3 230 106 231 
3 201 231 101 
3 106 232 231 
3 232 233 231 
3 232 107 233 
3 231 233 101 
3 106 226 232 
3 226 234 232 
3 226 26 234 
3 232 234 107 
3 101 233 202 
3 233 235 202 
3 233 107 235 
3 202 235 78 
3 79 204 173 
3 204 236 173 
3 204 102 236 
3 173 236 96 
3 102 237 236 
3 237 238 236 
3 237 107 238 
3 236 238 96 
3 102 207 237 
3 207 235 237 
3 207 78 235 
3 237 235 107 
3 96 238 178 
3 238 234 178 
3 238 107 234 
3 178 234 26 

CELL_TYPES 400
5 
5 
5 
5 
5 
5 
5 
5 
5 
5 
5 
5 
5 
5 
5 
5 
5 
5 
5 
5 
5 
5 
5 
5 
5 
5 
5 
5 
5 
5 
5 
5 
5 
5 
5 
5 
5 
5 
5 
5 
5 
5 
5 
5 
5 
5 
5 
5 
5 
5 
5 
5 
5 
5 
5 
5 
5 
5 
5 
5 
5 
5 
5 
5 
5 
5 
5 
5 
5 
5 
5 
5 
5 
5 
5 
5 
5 
5 
5 
5 
5 
5 
5 
5 
5 
5 
5 
5 
5 
5 
5 
5 
5 
5 
5 
5 
5 
5 
5 
5 
5 
5 
5 
5 
5 
5 
5 
5 
5 
5 
5 
5 
5 
5 
5 
5 
5 
5 
5 
5 
5 
5 
5 
5 
5 
5 
5 
5 
5 
5 
5 
5 
5 
5 
5 
5 
5 
5 
5 
5 
5 
5 
5 
5 
5 
5 
5 
5 
5 
5 
5 
5 
5 
5 
5 
5 
5 
5 
5 
5 
5 
5 
5 
5 
5 
5 
5 
5 
5 
5 
5 
5 
5 
5 
5 
5 
5 
5 
5 
5 
5 
5 
5 
5 
5 
5 
5 
5 
5 
5 
5 
5 
5 
5 
5 
5 
5 
5 
5 
5 
5 
5 
5 
5 
5 
5 
5 
5 
5 
5 
5 
5 
5 
5 
5 
5 
5 
5 
5 
5 
5 
5 
5 
5 
5 
5 
5 
5 
5 
5 
5 
5 
5 
5 
5 
5 
5 
5 
5 
5 
5 
5 
5 
5 
5 
5 
5 
5 
5 
5 
5 
5 
5 
5 
5 
5 
5 
5 
5 
5 
5 
5 
5 
5 
5 
5 
5 
5 
5 
5 
5 
5 
5 
5 
5 
5 
5 
5 
5 
5 
5 
5 
5 
5 
5 
5 
5 
5 
5 
5 
5 
5 
5 
5 
5 
5 
5 
5 
5 
5 
5 
5 
5 
5 
5 
5 
5 
5 
5 
5 
5 
5 
5 
5 
5 
5 
5 
5 
5 
5 
5 
5 
5 
5 
5 
5 
5 
5 
5 
5 
5 
5 
5 
5 
5 
5 
5 
5 
5 
5 
5 
5 
5 
5 
5 
5 
5 
5 
5 
5 
5 
5 
5 
5 
5 
5 
5 
5 
5 
5 
5 
5 
5 
5 
5 
5 
5 
5 
5 
5 
5 
5 
5 
5 
5 
5 
5 
5 
5 
5 
5 
5 
5 
5 
5 
5 
5 
5 
5 
5 
5 
5 
5 
5 
5 
5 
5 
5 
5 
5 
POINT_DATA 239
SCALARS GMDS_ID int 1
LOOKUP_TABLE default
0 1 2 3 4 5 6 7 8 9 10 11 12 13 14 15 16 17 18 19 20 21 22 23 24 25 26 27 28 29 30 31 32 33 34 35 36 37 38 39 40 41 42 43 44 45 46 47 48 49 50 51 52 53 54 55 56 57 58 59 60 61 62 63 64 65 66 67 68 69 70 71 72 73 74 75 76 77 78 79 80 81 82 83 84 85 86 87 88 89 90 91 92 93 94 95 96 97 98 99 100 101 102 103 104 105 106 107 108 109 110 111 112 113 114 115 116 117 118 119 120 121 122 123 124 125 126 127 128 129 130 131 132 133 134 135 136 137 138 139 140 141 142 143 144 145 146 147 148 149 150 151 152 153 154 155 156 157 158 159 160 161 162 163 164 165 166 167 168 169 170 171 172 173 174 175 176 177 178 179 180 181 182 183 184 185 186 187 188 189 190 191 192 193 194 195 196 197 198 199 200 201 202 203 204 205 206 207 208 209 210 211 212 213 214 215 216 217 218 219 220 221 222 223 224 225 226 227 228 229 230 231 232 233 234 235 236 237 238 
SCALARS angle float 1
LOOKUP_TABLE default
0 0 0.523599 1.0472 1.5708 2.0944 2.61799 3.14159 3.66519 4.18879 4.71239 5.23599 5.75959 -0 0.523599 1.0472 1.5708 2.0944 2.61799 3.14159 3.66519 4.18879 4.71239 5.23599 5.75959 5.21413 1.06905 2.23375 2.17025 1.4689 0 4.81429 4.11293 4.04943 6.15229 0.1309 0.523599 1.0472 1.5708 2.0944 2.61799 3.14159 3.66519 4.18879 4.71239 5.23599 5.75959 6.28319 0.523599 1.0472 1.5708 2.0944 2.61799 3.14159 3.66519 4.18879 4.71239 5.23599 5.75959 0 0 0 0 0 0 0 0 0 0 0 0 0 0 0 0 0 0.244908 0.597521 0.139091 6.23903 5.74446 5.76776 6.25948 0.089324 1.24192 0.407136 5.08812 1.70352 0.254298 5.76678 0.067 2.58093 0.397781 0.0988828 0.115331 0.126298 0.133912 6.15927 0.117324 0.176678 5.64096 4.93925 0.125191 5.90513 4.5609 5.24551 1.22138 0.353423 6.19124 6.08113 5.33418 5.72402 4.73268 1.21149 0.659712 6.24283 0.334462 5.60652 6.24989 0.00154413 5.53438 4.79844 5.91908 6.21534 0.584378 0.51314 0.71907 0.3754 1.23959 0.7136 2.10418 0.299032 3.04159 0.622033 3.82695 0.0765046 4.37804 1.18902 0.944026 0.475154 1.33517 0.694647 2.02127 0.0453757 4.93766 5.46945 6.12048 5.90006 0.0770796 5.42622 6.07832 6.11846 0.102182 0.212833 2.96268 3.89784 2.45869 2.09454 1.24125 2.09196 0.548806 0.217611 0.226282 0.156137 0.127941 0.0422003 0.162925 0.127395 0.0927114 0.18417 0.0456469 6.24238 0.455372 0.0246205 0.00785319 6.1724 0.0895794 0.00110611 0.495677 6.20368 0.124381 0.0790933 0.0436541 0.0316482 0.182486 0.254194 0.222762 0.235051 0.166547 0.146599 4.7083 5.4343 5.91402 5.83637 6.05608 5.16465 0.420333 6.06591 3.31181 3.88435 5.887 4.23031 0.0728715 0.105097 0.0595348 0.152899 0.141031 0.149979 6.15316 6.12429 5.67076 6.04695 5.02119 2.20279 4.85032 4.3871 4.75367 4.8938 4.4448 3.87473 4.83922 3.11753 5.46731 5.61623 6.08443 5.92937 1.10881 1.80032 0.87411 1.27451 4.56008 5.63418 0.683393 0.182391 0.664177 0.177242 0.128513 0.193627 0.296825 
VECTORS cross_X float
1 0 0 1 0 0 0.991445 0.130526 0 0.965926 0.258819 0 0.92388 0.382683 0 0.866025 0.5 0 0.793353 0.608761 0 0.707107 0.707107 0 0.608761 0.793353 0 0.5 0.866025 0 0.382683 0.92388 0 0.258819 0.965926 0 0.130526 0.991445 0 1 0 0 0.991445 0.130526 0 0.965926 0.258819 0 0.92388 0.382683 0 0.866025 0.5 0 0.793353 0.608761 0 0.707107 0.707107 0 0.608761 0.793353 0 0.5 0.866025 0 0.382683 0.92388 0 0.258819 0.965926 0 0.130526 0.991445 0 0.264093 0.964497 0 0.964497 0.264093 0 0.848084 0.529862 0 0.856388 0.516333 0 0.933327 0.359027 0 1 0 0 0.359027 0.933327 0 0.516333 0.856388 0 0.529862 0.848084 0 0.0327191 0.999465 0 0.999465 0.0327191 0 0.991445 0.130526 0 0.965926 0.258819 0 0.92388 0.382683 0 0.866025 0.5 0 0.793353 0.608761 0 0.707107 0.707107 0 0.608761 0.793353 0 0.5 0.866025 0 0.382683 0.92388 0 0.258819 0.965926 0 0.130526 0.991445 0 2.07995e-12 1 0 0.991445 0.130526 0 0.965926 0.258819 0 0.92388 0.382683 0 0.866025 0.5 0 0.793353 0.608761 0 0.707107 0.707107 0 0.608761 0.793353 0 0.5 0.866025 0 0.382683 0.92388 0 0.258819 0.965926 0 0.130526 0.991445 0 1 0 0 1 0 0 1 0 0 1 0 0 1 0 0 1 0 0 1 0 0 1 0 0 1 0 0 1 0 0 1 0 0 1 0 0 1 0 0 1 0 0 1 0 0 1 0 0 1 0 0 0.998126 0.0611887 0 0.988864 0.148825 0 0.999395 0.0347658 0 0.0110381 0.999939 0 0.134275 0.990944 0 0.1285 0.99171 0 0.00592733 0.999982 0 0.999751 0.0223291 0 0.952187 0.305515 0 0.994824 0.101608 0 0.294342 0.9557 0 0.910676 0.413122 0 0.99798 0.0635317 0 0.128744 0.991678 0 0.99986 0.0167492 0 0.79896 0.601384 0 0.995059 0.0992815 0 0.999694 0.0247182 0 0.999584 0.0288286 0 0.999502 0.0315693 0 0.99944 0.0334717 0 0.0309738 0.99952 0 0.99957 0.0293267 0 0.999025 0.0441551 0 0.159868 0.987138 0 0.329697 0.944087 0 0.99951 0.0312927 0 0.0943734 0.995537 0 0.41739 0.908727 0 0.25652 0.966539 0 0.953743 0.300623 0 0.996099 0.0882408 0 0.022984 0.999736 0 0.0504922 0.998724 0 0.235031 0.971988 0 0.139336 0.990245 0 0.377993 0.925809 0 0.954483 0.298264 0 0.98643 0.164181 0 0.0100883 0.999949 0 0.996506 0.083518 0 0.168362 0.985725 0 0.00832275 0.999965 0 1 0.000386033 0 0.186111 0.982529 0 0.362721 0.931898 0 0.0909004 0.99586 0 0.0169606 0.999856 0 0.989347 0.145575 0 0.991783 0.127933 0 0.983885 0.178801 0 0.995599 0.0937122 0 0.952365 0.304962 0 0.984129 0.177455 0 0.864799 0.502118 0 0.997207 0.0746884 0 0.724562 0.68921 0 0.987933 0.154882 0 0.57619 0.817316 0 0.999817 0.019125 0 0.458482 0.888704 0 0.956144 0.292897 0 0.97228 0.233822 0 0.992953 0.118509 0 0.944806 0.327629 0 0.984959 0.17279 0 0.87502 0.484086 0 0.999936 0.0113437 0 0.330074 0.943955 0 0.202034 0.979379 0 0.0406656 0.999173 0 0.0956356 0.995416 0 0.999814 0.0192687 0 0.212606 0.977138 0 0.0511936 0.998689 0 0.0411701 0.999152 0 0.999674 0.0255428 0 0.998585 0.0531832 0 0.738016 0.674783 0 0.561615 0.827398 0 0.816962 0.576692 0 0.866007 0.500032 0 0.952238 0.305356 0 0.866329 0.499474 0 0.990603 0.136771 0 0.998521 0.054376 0 0.9984 0.0565403 0 0.999238 0.0390243 0 0.999489 0.0319797 0 0.999944 0.0105499 0 0.999171 0.04072 0 0.999493 0.0318434 0 0.999731 0.0231758 0 0.99894 0.0460262 0 0.999935 0.0114115 0 0.0102015 0.999948 0 0.993527 0.113597 0 0.999981 0.00615509 0 0.999998 0.0019633 0 0.027693 0.999616 0 0.999749 0.022393 0 1 0.000276528 0 0.992332 0.123602 0 0.0198754 0.999802 0 0.999517 0.0310902 0 0.999805 0.019772 0 0.99994 0.0109133 0 0.999969 0.00791196 0 0.99896 0.0456056 0 0.997981 0.0635057 0 0.99845 0.0556617 0 0.998274 0.0587288 0 0.999133 0.0416247 0 0.999328 0.0366416 0 0.383628 0.923488 0 0.210632 0.977565 0 0.0921609 0.995744 0 0.111471 0.993768 0 0.0567469 0.998389 0 0.276003 0.961157 0 0.994484 0.10489 0 0.0542912 0.998525 0 0.676386 0.736548 0 0.564402 0.8255 0 0.0988838 0.995099 0 0.490983 0.871169 0 0.999834 0.0182169 0 0.999655 0.0262712 0 0.999889 0.0148832 0 0.99927 0.0382153 0 0.999379 0.0352504 0 0.999297 0.037486 0 0.0324996 0.999472 0 0.0397129 0.999211 0 0.15251 0.988302 0 0.0590235 0.998257 0 0.310291 0.950642 0 0.852159 0.523282 0 0.350605 0.936524 0 0.456467 0.88974 0 0.373128 0.92778 0 0.340404 0.940279 0 0.443585 0.896232 0 0.566386 0.82414 0 0.353201 0.935547 0 0.711347 0.702841 0 0.202557 0.979271 0 0.165968 0.986131 0 0.0496681 0.998766 0 0.0883374 0.996091 0 0.961825 0.273665 0 0.900412 0.435038 0 0.976218 0.216792 0 0.949666 0.313264 0 0.417577 0.908642 0 0.16154 0.986866 0 0.985441 0.170018 0 0.998961 0.0455818 0 0.986246 0.165282 0 0.999018 0.0442961 0 0.999484 0.0321228 0 0.998829 0.0483879 0 0.997248 0.0741381 0 
VECTORS VY float
6.12323e-17 1 0 6.12323e-17 1 0 -0.130526 0.991445 0 -0.258819 0.965926 0 -0.382683 0.92388 0 -0.5 0.866025 0 -0.608761 0.793353 0 -0.707107 0.707107 0 -0.793353 0.608761 0 -0.866025 0.5 0 -0.92388 0.382683 0 -0.965926 0.258819 0 -0.991445 0.130526 0 6.12323e-17 1 0 -0.130526 0.991445 0 -0.258819 0.965926 0 -0.382683 0.92388 0 -0.5 0.866025 0 -0.608761 0.793353 0 -0.707107 0.707107 0 -0.793353 0.608761 0 -0.866025 0.5 0 -0.92388 0.382683 0 -0.965926 0.258819 0 -0.991445 0.130526 0 -0.964497 0.264093 0 -0.264093 0.964497 0 -0.529862 0.848084 0 -0.516333 0.856388 0 -0.359027 0.933327 0 6.12323e-17 1 0 -0.933327 0.359027 0 -0.856388 0.516333 0 -0.848084 0.529862 0 -0.999465 0.0327191 0 -0.0327191 0.999465 0 -0.130526 0.991445 0 -0.258819 0.965926 0 -0.382683 0.92388 0 -0.5 0.866025 0 -0.608761 0.793353 0 -0.707107 0.707107 0 -0.793353 0.608761 0 -0.866025 0.5 0 -0.92388 0.382683 0 -0.965926 0.258819 0 -0.991445 0.130526 0 -1 2.08024e-12 0 -0.130526 0.991445 0 -0.258819 0.965926 0 -0.382683 0.92388 0 -0.5 0.866025 0 -0.608761 0.793353 0 -0.707107 0.707107 0 -0.793353 0.608761 0 -0.866025 0.5 0 -0.92388 0.382683 0 -0.965926 0.258819 0 -0.991445 0.130526 0 6.12323e-17 1 0 6.12323e-17 1 0 6.12323e-17 1 0 6.12323e-17 1 0 6.12323e-17 1 0 6.12323e-17 1 0 6.12323e-17 1 0 6.12323e-17 1 0 6.12323e-17 1 0 6.12323e-17 1 0 6.12323e-17 1 0 6.12323e-17 1 0 6.12323e-17 1 0 6.12323e-17 1 0 6.12323e-17 1 0 6.12323e-17 1 0 6.12323e-17 1 0 -0.0611887 0.998126 0 -0.148825 0.988864 0 -0.0347658 0.999395 0 -0.999939 0.0110381 0 -0.990944 0.134275 0 -0.99171 0.1285 0 -0.999982 0.00592733 0 -0.0223291 0.999751 0 -0.305515 0.952187 0 -0.101608 0.994824 0 -0.9557 0.294342 0 -0.413122 0.910676 0 -0.0635317 0.99798 0 -0.991678 0.128744 0 -0.0167492 0.99986 0 -0.601384 0.79896 0 -0.0992815 0.995059 0 -0.0247182 0.999694 0 -0.0288286 0.999584 0 -0.0315693 0.999502 0 -0.0334717 0.99944 0 -0.99952 0.0309738 0 -0.0293267 0.99957 0 -0.0441551 0.999025 0 -0.987138 0.159868 0 -0.944087 0.329697 0 -0.0312927 0.99951 0 -0.995537 0.0943734 0 -0.908727 0.41739 0 -0.966539 0.25652 0 -0.300623 0.953743 0 -0.0882408 0.996099 0 -0.999736 0.022984 0 -0.998724 0.0504922 0 -0.971988 0.235031 0 -0.990245 0.139336 0 -0.925809 0.377993 0 -0.298264 0.954483 0 -0.164181 0.98643 0 -0.999949 0.0100883 0 -0.083518 0.996506 0 -0.985725 0.168362 0 -0.999965 0.00832275 0 -0.000386033 1 0 -0.982529 0.186111 0 -0.931898 0.362721 0 -0.99586 0.0909004 0 -0.999856 0.0169606 0 -0.145575 0.989347 0 -0.127933 0.991783 0 -0.178801 0.983885 0 -0.0937122 0.995599 0 -0.304962 0.952365 0 -0.177455 0.984129 0 -0.502118 0.864799 0 -0.0746884 0.997207 0 -0.68921 0.724562 0 -0.154882 0.987933 0 -0.817316 0.57619 0 -0.019125 0.999817 0 -0.888704 0.458482 0 -0.292897 0.956144 0 -0.233822 0.97228 0 -0.118509 0.992953 0 -0.327629 0.944806 0 -0.17279 0.984959 0 -0.484086 0.87502 0 -0.0113437 0.999936 0 -0.943955 0.330074 0 -0.979379 0.202034 0 -0.999173 0.0406656 0 -0.995416 0.0956356 0 -0.0192687 0.999814 0 -0.977138 0.212606 0 -0.998689 0.0511936 0 -0.999152 0.0411701 0 -0.0255428 0.999674 0 -0.0531832 0.998585 0 -0.674783 0.738016 0 -0.827398 0.561615 0 -0.576692 0.816962 0 -0.500032 0.866007 0 -0.305356 0.952238 0 -0.499474 0.866329 0 -0.136771 0.990603 0 -0.054376 0.998521 0 -0.0565403 0.9984 0 -0.0390243 0.999238 0 -0.0319797 0.999489 0 -0.0105499 0.999944 0 -0.04072 0.999171 0 -0.0318434 0.999493 0 -0.0231758 0.999731 0 -0.0460262 0.99894 0 -0.0114115 0.999935 0 -0.999948 0.0102015 0 -0.113597 0.993527 0 -0.00615509 0.999981 0 -0.0019633 0.999998 0 -0.999616 0.027693 0 -0.022393 0.999749 0 -0.000276528 1 0 -0.123602 0.992332 0 -0.999802 0.0198754 0 -0.0310902 0.999517 0 -0.019772 0.999805 0 -0.0109133 0.99994 0 -0.00791196 0.999969 0 -0.0456056 0.99896 0 -0.0635057 0.997981 0 -0.0556617 0.99845 0 -0.0587288 0.998274 0 -0.0416247 0.999133 0 -0.0366416 0.999328 0 -0.923488 0.383628 0 -0.977565 0.210632 0 -0.995744 0.0921609 0 -0.993768 0.111471 0 -0.998389 0.0567469 0 -0.961157 0.276003 0 -0.10489 0.994484 0 -0.998525 0.0542912 0 -0.736548 0.676386 0 -0.8255 0.564402 0 -0.995099 0.0988838 0 -0.871169 0.490983 0 -0.0182169 0.999834 0 -0.0262712 0.999655 0 -0.0148832 0.999889 0 -0.0382153 0.99927 0 -0.0352504 0.999379 0 -0.037486 0.999297 0 -0.999472 0.0324996 0 -0.999211 0.0397129 0 -0.988302 0.15251 0 -0.998257 0.0590235 0 -0.950642 0.310291 0 -0.523282 0.852159 0 -0.936524 0.350605 0 -0.88974 0.456467 0 -0.92778 0.373128 0 -0.940279 0.340404 0 -0.896232 0.443585 0 -0.82414 0.566386 0 -0.935547 0.353201 0 -0.702841 0.711347 0 -0.979271 0.202557 0 -0.986131 0.165968 0 -0.998766 0.0496681 0 -0.996091 0.0883374 0 -0.273665 0.961825 0 -0.435038 0.900412 0 -0.216792 0.976218 0 -0.313264 0.949666 0 -0.908642 0.417577 0 -0.986866 0.16154 0 -0.170018 0.985441 0 -0.0455818 0.998961 0 -0.165282 0.986246 0 -0.0442961 0.999018 0 -0.0321228 0.999484 0 -0.0483879 0.998829 0 -0.0741381 0.997248 0 
VECTORS VXM float
-1 1.22465e-16 0 -1 1.22465e-16 0 -0.991445 -0.130526 0 -0.965926 -0.258819 0 -0.92388 -0.382683 0 -0.866025 -0.5 0 -0.793353 -0.608761 0 -0.707107 -0.707107 0 -0.608761 -0.793353 0 -0.5 -0.866025 0 -0.382683 -0.92388 0 -0.258819 -0.965926 0 -0.130526 -0.991445 0 -1 1.22465e-16 0 -0.991445 -0.130526 0 -0.965926 -0.258819 0 -0.92388 -0.382683 0 -0.866025 -0.5 0 -0.793353 -0.608761 0 -0.707107 -0.707107 0 -0.608761 -0.793353 0 -0.5 -0.866025 0 -0.382683 -0.92388 0 -0.258819 -0.965926 0 -0.130526 -0.991445 0 -0.264093 -0.964497 0 -0.964497 -0.264093 0 -0.848084 -0.529862 0 -0.856388 -0.516333 0 -0.933327 -0.359027 0 -1 1.22465e-16 0 -0.359027 -0.933327 0 -0.516333 -0.856388 0 -0.529862 -0.848084 0 -0.0327191 -0.999465 0 -0.999465 -0.0327191 0 -0.991445 -0.130526 0 -0.965926 -0.258819 0 -0.92388 -0.382683 0 -0.866025 -0.5 0 -0.793353 -0.608761 0 -0.707107 -0.707107 0 -0.608761 -0.793353 0 -0.5 -0.866025 0 -0.382683 -0.92388 0 -0.258819 -0.965926 0 -0.130526 -0.991445 0 -2.0803e-12 -1 0 -0.991445 -0.130526 0 -0.965926 -0.258819 0 -0.92388 -0.382683 0 -0.866025 -0.5 0 -0.793353 -0.608761 0 -0.707107 -0.707107 0 -0.608761 -0.793353 0 -0.5 -0.866025 0 -0.382683 -0.92388 0 -0.258819 -0.965926 0 -0.130526 -0.991445 0 -1 1.22465e-16 0 -1 1.22465e-16 0 -1 1.22465e-16 0 -1 1.22465e-16 0 -1 1.22465e-16 0 -1 1.22465e-16 0 -1 1.22465e-16 0 -1 1.22465e-16 0 -1 1.22465e-16 0 -1 1.22465e-16 0 -1 1.22465e-16 0 -1 1.22465e-16 0 -1 1.22465e-16 0 -1 1.22465e-16 0 -1 1.22465e-16 0 -1 1.22465e-16 0 -1 1.22465e-16 0 -0.998126 -0.0611887 0 -0.988864 -0.148825 0 -0.999395 -0.0347658 0 -0.0110381 -0.999939 0 -0.134275 -0.990944 0 -0.1285 -0.99171 0 -0.00592733 -0.999982 0 -0.999751 -0.0223291 0 -0.952187 -0.305515 0 -0.994824 -0.101608 0 -0.294342 -0.9557 0 -0.910676 -0.413122 0 -0.99798 -0.0635317 0 -0.128744 -0.991678 0 -0.99986 -0.0167492 0 -0.79896 -0.601384 0 -0.995059 -0.0992815 0 -0.999694 -0.0247182 0 -0.999584 -0.0288286 0 -0.999502 -0.0315693 0 -0.99944 -0.0334717 0 -0.0309738 -0.99952 0 -0.99957 -0.0293267 0 -0.999025 -0.0441551 0 -0.159868 -0.987138 0 -0.329697 -0.944087 0 -0.99951 -0.0312927 0 -0.0943734 -0.995537 0 -0.41739 -0.908727 0 -0.25652 -0.966539 0 -0.953743 -0.300623 0 -0.996099 -0.0882408 0 -0.022984 -0.999736 0 -0.0504922 -0.998724 0 -0.235031 -0.971988 0 -0.139336 -0.990245 0 -0.377993 -0.925809 0 -0.954483 -0.298264 0 -0.98643 -0.164181 0 -0.0100883 -0.999949 0 -0.996506 -0.083518 0 -0.168362 -0.985725 0 -0.00832275 -0.999965 0 -1 -0.000386033 0 -0.186111 -0.982529 0 -0.362721 -0.931898 0 -0.0909004 -0.99586 0 -0.0169606 -0.999856 0 -0.989347 -0.145575 0 -0.991783 -0.127933 0 -0.983885 -0.178801 0 -0.995599 -0.0937122 0 -0.952365 -0.304962 0 -0.984129 -0.177455 0 -0.864799 -0.502118 0 -0.997207 -0.0746884 0 -0.724562 -0.68921 0 -0.987933 -0.154882 0 -0.57619 -0.817316 0 -0.999817 -0.019125 0 -0.458482 -0.888704 0 -0.956144 -0.292897 0 -0.97228 -0.233822 0 -0.992953 -0.118509 0 -0.944806 -0.327629 0 -0.984959 -0.17279 0 -0.87502 -0.484086 0 -0.999936 -0.0113437 0 -0.330074 -0.943955 0 -0.202034 -0.979379 0 -0.0406656 -0.999173 0 -0.0956356 -0.995416 0 -0.999814 -0.0192687 0 -0.212606 -0.977138 0 -0.0511936 -0.998689 0 -0.0411701 -0.999152 0 -0.999674 -0.0255428 0 -0.998585 -0.0531832 0 -0.738016 -0.674783 0 -0.561615 -0.827398 0 -0.816962 -0.576692 0 -0.866007 -0.500032 0 -0.952238 -0.305356 0 -0.866329 -0.499474 0 -0.990603 -0.136771 0 -0.998521 -0.054376 0 -0.9984 -0.0565403 0 -0.999238 -0.0390243 0 -0.999489 -0.0319797 0 -0.999944 -0.0105499 0 -0.999171 -0.04072 0 -0.999493 -0.0318434 0 -0.999731 -0.0231758 0 -0.99894 -0.0460262 0 -0.999935 -0.0114115 0 -0.0102015 -0.999948 0 -0.993527 -0.113597 0 -0.999981 -0.00615509 0 -0.999998 -0.0019633 0 -0.027693 -0.999616 0 -0.999749 -0.022393 0 -1 -0.000276528 0 -0.992332 -0.123602 0 -0.0198754 -0.999802 0 -0.999517 -0.0310902 0 -0.999805 -0.019772 0 -0.99994 -0.0109133 0 -0.999969 -0.00791196 0 -0.99896 -0.0456056 0 -0.997981 -0.0635057 0 -0.99845 -0.0556617 0 -0.998274 -0.0587288 0 -0.999133 -0.0416247 0 -0.999328 -0.0366416 0 -0.383628 -0.923488 0 -0.210632 -0.977565 0 -0.0921609 -0.995744 0 -0.111471 -0.993768 0 -0.0567469 -0.998389 0 -0.276003 -0.961157 0 -0.994484 -0.10489 0 -0.0542912 -0.998525 0 -0.676386 -0.736548 0 -0.564402 -0.8255 0 -0.0988838 -0.995099 0 -0.490983 -0.871169 0 -0.999834 -0.0182169 0 -0.999655 -0.0262712 0 -0.999889 -0.0148832 0 -0.99927 -0.0382153 0 -0.999379 -0.0352504 0 -0.999297 -0.037486 0 -0.0324996 -0.999472 0 -0.0397129 -0.999211 0 -0.15251 -0.988302 0 -0.0590235 -0.998257 0 -0.310291 -0.950642 0 -0.852159 -0.523282 0 -0.350605 -0.936524 0 -0.456467 -0.88974 0 -0.373128 -0.92778 0 -0.340404 -0.940279 0 -0.443585 -0.896232 0 -0.566386 -0.82414 0 -0.353201 -0.935547 0 -0.711347 -0.702841 0 -0.202557 -0.979271 0 -0.165968 -0.986131 0 -0.0496681 -0.998766 0 -0.0883374 -0.996091 0 -0.961825 -0.273665 0 -0.900412 -0.435038 0 -0.976218 -0.216792 0 -0.949666 -0.313264 0 -0.417577 -0.908642 0 -0.16154 -0.986866 0 -0.985441 -0.170018 0 -0.998961 -0.0455818 0 -0.986246 -0.165282 0 -0.999018 -0.0442961 0 -0.999484 -0.0321228 0 -0.998829 -0.0483879 0 -0.997248 -0.0741381 0 
VECTORS VYM float