# vtk DataFile Version 3.0
Generated by GMDS VTK Writer

ASCII
DATASET UNSTRUCTURED_GRID
POINTS 980 float
3 15 0
13 15 0
13 5 0
3 5 0
3.01195 15.4883 0
3.08624 15.9712 0
3.21504 16.4426 0
3.39209 16.8981 0
3.61246 17.3342 0
3.87225 17.7482 0
4.16829 18.137 0
4.49785 18.4979 0
4.85845 18.8277 0
5.24757 19.1234 0
5.66254 19.3815 0
6.10029 19.5987 0
6.55729 19.7717 0
7.02943 19.8977 0
7.51203 19.9743 0
8 20 0
8.48797 19.9743 0
8.97057 19.8977 0
9.44271 19.7717 0
9.89971 19.5987 0
10.3375 19.3815 0
10.7524 19.1234 0
11.1416 18.8277 0
11.5021 18.4979 0
11.8317 18.137 0
12.1278 17.7482 0
12.3875 17.3342 0
12.6079 16.8981 0
12.785 16.4426 0
12.9138 15.9712 0
12.988 15.4883 0
12.5117 14.988 0
12.0288 14.9138 0
11.5574 14.785 0
11.1019 14.6079 0
10.6658 14.3875 0
10.2518 14.1278 0
9.86301 13.8317 0
9.50215 13.5021 0
9.17229 13.1416 0
8.87665 12.7524 0
8.61854 12.3375 0
8.40134 11.8997 0
8.22829 11.4427 0
8.10231 10.9706 0
8.02571 10.488 0
8 10 0
8.02571 9.51203 0
8.10231 9.02943 0
8.22829 8.55729 0
8.40134 8.10029 0
8.61854 7.66254 0
8.87665 7.24757 0
9.17229 6.85845 0
9.50215 6.49785 0
9.86301 6.16829 0
10.2518 5.87225 0
10.6658 5.61246 0
11.1019 5.39209 0
11.5574 5.21504 0
12.0288 5.08624 0
12.5117 5.01195 0
12.988 4.51166 0
12.9138 4.02876 0
12.785 3.55741 0
12.6079 3.10195 0
12.3875 2.66577 0
12.1278 2.25184 0
11.8317 1.86301 0
11.5021 1.50215 0
11.1416 1.17229 0
10.7524 0.876646 0
10.3375 0.618537 0
9.89971 0.401336 0
9.44271 0.22829 0
8.97057 0.102306 0
8.48797 0.0257073 0
8 -1.11022e-16 0
7.51203 0.0257073 0
7.02943 0.102306 0
6.55729 0.22829 0
6.10029 0.401336 0
5.66254 0.618537 0
5.24757 0.876646 0
4.85845 1.17229 0
4.49785 1.50215 0
4.16829 1.86301 0
3.87225 2.25184 0
3.61246 2.66577 0
3.39209 3.10195 0
3.21504 3.55741 0
3.08624 4.02876 0
3.01195 4.51166 0
2.65092 5.30256 0
2.31387 5.61847 0
1.98968 5.94756 0
1.67954 6.28991 0
1.38505 6.64581 0
1.1083 7.01566 0
0.851986 7.39994 0
0.619513 7.79908 0
0.415187 8.2133 0
0.244333 8.64238 0
0.113343 9.08521 0
0.0294485 9.53926 0
4.32563e-29 10 0
0.0294485 10.4607 0
0.113343 10.9148 0
0.244333 11.3576 0
0.415187 11.7867 0
0.619513 12.2009 0
0.851986 12.6001 0
1.1083 12.9843 0
1.38505 13.3542 0
1.67954 13.7101 0
1.98968 14.0524 0
2.31387 14.3815 0
2.65092 14.6974 0
3.78567 9.86558 0
6.86618 15.7071 0
6.86618 4.29292 0
5.44384 7.11089 0
5.40224 12.8985 0
9.44051 16.7444 0
9.44051 3.2556 0
3.44617 12.1432 0
3.4354 7.85511 0
6.0154 9.32793 0
7.68928 18.1252 0
7.68928 1.87477 0
5.0949 5.1545 0
5.0949 14.8455 0
1.70035 10 0
7.19572 6.23678 0
7.09231 13.7985 0
6.37188 11.0319 0
8.45323 14.9956 0
8.45323 5.00439 0
5.22213 16.636 0
5.22213 3.36396 0
3.90868 6.40042 0
3.90868 13.5996 0
11.0875 16.3642 0
11.0875 3.63581 0
6.87338 7.76085 0
4.64445 11.4009 0
4.56212 8.62556 0
1.85417 11.5018 0
1.85417 8.49822 0
9.1281 18.2587 0
9.1281 1.74127 0
6.12917 2.09667 0
6.12917 17.9033 0
6.94834 12.3974 0
8.07555 16.5562 0
8.07555 3.44375 0
9.94488 15.4667 0
9.94488 4.53332 0
10.3862 17.7193 0
10.3862 2.28073 0
3.02587 10.8807 0
3.2091 9.23439 0
5.26268 10.0463 0
5.98575 5.99421 0
5.95876 14.0152 0
2.9052 13.3917 0
2.9052 6.60826 0
4.48991 16.0308 0
4.48991 3.96924 0
6.69367 9.97115 0
8.62373 13.8287 0
8.37595 6.05783 0
7.6843 7.20287 0
4.18345 7.39499 0
4.21123 12.5968 0
6.90577 1.24685 0
6.90577 18.7531 0
1.10874 9.26094 0
1.10874 10.7391 0
6.72123 17.1305 0
6.72123 2.86951 0
8.29229 18.9232 0
8.29229 1.07684 0
7.52036 15.0054 0
7.52036 4.99461 0
6.12989 4.93938 0
6.12872 15.061 0
5.56493 8.21219 0
4.02539 5.38654 0
4.02539 14.6135 0
6.99917 8.93051 0
1.99999 12.42 0
1.99999 7.57996 0
7.83657 12.992 0
4.89143 6.10748 0
4.89143 13.8925 0
6.44057 6.93568 0
5.09482 2.3471 0
5.09482 17.6529 0
5.52531 11.8691 0
7.17411 11.3757 0
8.456 17.5085 0
8.456 2.49155 0
6.37606 13.1085 0
11.1474 17.4596 0
11.1474 2.54044 0
9.48074 14.5964 0
9.44534 5.3874 0
11.8823 15.8261 0
11.8823 4.17392 0
5.42311 4.28277 0
5.42299 15.7173 0
4.29976 16.8732 0
4.29976 3.12676 0
8.76978 16.0288 0
8.76978 3.97122 0
3.23063 14.1973 0
3.23063 5.80274 0
2.84357 10.0942 0
9.97234 18.5451 0
9.97234 1.45488 0
3.75451 11.3917 0
4.61131 9.53994 0
6.16096 16.4367 0
6.16096 3.56326 0
10.2171 16.8555 0
10.2171 3.14452 0
3.70631 8.59963 0
7.84015 4.213 0
7.84015 15.787 0
10.9636 15.4468 0
10.9636 4.55319 0
1.05038 11.5739 0
1.05038 8.42615 0
7.55885 8.27568 0
6.07929 1.33863 0
6.07929 18.6614 0
3.48212 12.8808 0
3.45772 7.12818 0
0.722195 10 0
9.2447 0.940921 0
9.2447 19.0591 0
5.98982 10.3121 0
5.37592 10.8788 0
2.23659 10.7485 0
2.23659 9.25153 0
4.46141 10.6122 0
9.47737 17.4861 0
9.47737 2.51394 0
6.31947 8.50588 0
3.76435 4.51389 0
3.76435 15.4861 0
6.36206 11.8767 0
2.71856 11.662 0
2.73631 8.35301 0
11.8293 16.6849 0
11.8293 3.31508 0
7.35354 10.5673 0
6.82504 14.593 0
6.8157 5.42402 0
4.8115 7.8129 0
5.86566 17.1519 0
5.86566 2.8481 0
7.5258 0.778274 0
7.5258 19.2217 0
1.32647 12.1362 0
1.32647 7.86381 0
5.22219 9.03072 0
6.07491 7.64717 0
7.64419 11.9738 0
4.67786 6.87302 0
4.68329 13.1379 0
6.87305 2.02319 0
6.87305 17.9768 0
7.38361 9.62332 0
3.98108 9.22184 0
4.79318 12.2452 0
7.06093 13.0849 0
10.7551 1.70116 0
10.7551 18.2988 0
5.40974 1.63224 0
5.40974 18.3678 0
7.54693 17.2398 0
7.54693 2.76015 0
8.39206 18.1934 0
8.39206 1.80665 0
3.61324 10.6004 0
10.3588 14.8555 0
10.3624 5.14224 0
10.3376 16.0913 0
10.3376 3.90867 0
7.20183 3.52377 0
7.20183 16.4762 0
7.04849 7.03404 0
9.22693 15.3961 0
9.22693 4.6039 0
7.70214 5.64026 0
7.73332 14.259 0
2.77594 12.6135 0
2.77303 7.39022 0
2.13047 13.2502 0
2.12999 6.75041 0
3.80647 16.2519 0
3.80647 3.74812 0
8.33278 6.79614 0
6.01188 12.472 0
9.60377 16.0735 0
9.60377 3.92649 0
4.48293 4.75409 0
4.48293 15.2459 0
6.14471 15.7305 0
6.14504 4.26958 0
8.7414 16.771 0
8.7414 3.22901 0
4.15001 8.09113 0
4.19226 11.9036 0
12.4636 4.56502 0
12.4636 15.435 0
7.90905 0.927557 0
7.60754 1.32652 0
7.99079 1.4758 0
7.99079 18.5242 0
7.60754 18.6735 0
7.90905 19.0724 0
7.21578 1.01256 0
7.29752 1.56081 0
7.29752 18.4392 0
7.21578 18.9874 0
11.4962 15.1803 0
11.423 15.6364 0
11.9555 15.3699 0
11.9555 4.63008 0
11.423 4.36355 0
11.4962 4.81971 0
5.54033 5.57435 0
6.05782 5.46679 0
5.6124 5.04694 0
5.61181 14.9533 0
6.04374 14.5381 0
5.52683 14.4304 0
7.76425 6.51646 0
8.35436 6.42699 0
7.78584 6.14731 0
5.71479 6.55255 0
5.43859 6.05084 0
5.16763 6.60919 0
5.14683 13.3955 0
5.42509 13.9539 0
5.6805 13.4569 0
7.44001 6.71982 0
8.00854 6.9995 0
8.03904 5.84905 0
7.44893 5.93852 0
5.61879 9.17933 0
5.24243 9.53852 0
5.63904 9.68712 0
6.35453 9.64954 0
6.84642 9.45083 0
6.50728 9.12922 0
8.75019 13.2906 0
9.06294 13.6654 0
6.49804 4.61615 0
6.4728 5.1817 0
6.84094 4.85847 0
6.84561 15.15 0
6.47688 14.827 0
6.49745 15.3841 0
6.86271 10.7996 0
7.02361 10.2692 0
6.53277 10.5015 0
2.22193 6.18444 0
2.5176 6.67933 0
2.60954 6.11336 0
2.60954 13.8866 0
2.51784 13.321 0
2.22217 13.8159 0
8.63143 19.4104 0
8.14615 19.4616 0
8.14615 0.53842 0
8.63143 0.589573 0
1.40455 9.63047 0
0.915467 9.63047 0
1.21127 10 0
0.915467 10.3695 0
1.40455 10.3695 0
7.16803 5.20932 0
7.19327 4.64377 0
7.19327 15.3562 0
7.1727 14.7992 0
6.59074 6.11549 0
6.21316 6.46494 0
6.81814 6.58623 0
3.49739 9.54999 0
3.02634 9.66431 0
3.31462 9.97991 0
6.73419 13.4535 0
6.16741 13.5619 0
6.52554 13.9069 0
8.36706 7.44822 0
8.60471 7.02186 0
5.32256 16.1767 0
4.95645 15.874 0
4.85602 16.3334 0
4.85602 3.6666 0
4.95651 4.12601 0
5.32262 3.82337 0
8.35661 12.8722 0
8.23015 13.4103 0
4.99316 5.63099 0
4.99316 14.369 0
6.77299 11.2038 0
7.26383 10.9715 0
5.9422 7.02329 0
11.0328 15.0274 0
11.0328 4.97264 0
2.77225 14.2894 0
3.06792 13.7945 0
3.06792 6.2055 0
2.77225 5.71061 0
8.04282 7.65158 0
3.96704 14.1065 0
4.45841 14.253 0
4.40005 13.746 0
4.40005 6.25395 0
4.45841 5.74701 0
3.96704 5.89348 0
5.62625 10.1792 0
6.00261 9.82003 0
9.10764 19.4784 0
8.7685 18.9911 0
8.7685 1.00888 0
9.10764 0.521614 0
3.88338 9.54371 0
3.59509 9.22812 0
4.56015 14.7295 0
4.56015 5.27052 0
11.3248 17.9787 0
10.9512 17.8792 0
11.1286 18.3983 0
11.1286 1.60165 0
10.9512 2.1208 0
11.3248 2.02129 0
4.91675 9.28533 0
4.937 9.79313 0
12.3715 16.3281 0
12.398 15.8987 0
11.8558 16.2555 0
12.398 4.10134 0
12.3715 3.67192 0
11.8558 3.7445 0
12.2186 16.7915 0
12.2186 3.20851 0
5.88915 13.0035 0
4.48353 17.7005 0
4.69729 17.2631 0
4.086 17.3107 0
4.086 2.6893 0
4.69729 2.73693 0
4.48353 2.29947 0
1.90477 6.52016 0
1.90501 13.4801 0
8.96699 14.796 0
9.05224 14.2125 0
8.53848 14.4121 0
8.41459 5.53111 0
8.91065 5.72261 0
8.94929 5.19589 0
9.49144 14.0493 0
9.47374 5.94263 0
8.93905 6.27784 0
7.41282 14.0287 0
7.78495 13.6255 0
7.46444 13.3953 0
4.79634 18.0754 0
4.79634 1.92462 0
11.6376 17.6039 0
11.6376 2.39614 0
8.17853 14.0438 0
6.9676 19.3254 0
6.50303 19.1759 0
6.50303 0.824095 0
6.9676 0.674581 0
2.04538 11.1251 0
1.67267 10.7438 0
1.48145 11.1204 0
1.48145 8.87958 0
1.67267 9.25623 0
2.04538 8.87488 0
3.56966 6.10158 0
3.40694 6.50434 0
3.40694 13.4957 0
3.56966 13.8984 0
4.39483 16.452 0
4.76094 16.7546 0
4.76094 3.24536 0
4.39483 3.548 0
8.11895 12.4459 0
0.569094 9.4001 0
0.676537 8.95166 0
0.676537 11.0483 0
0.569094 10.5999 0
7.00571 5.8304 0
6.40073 5.70912 0
6.3919 14.3041 0
6.95868 14.1958 0
8.91746 6.647 0
8.09328 14.6273 0
8.07768 5.32232 0
6.34174 10.1416 0
3.6954 13.2402 0
3.19366 13.1363 0
3.18146 6.86822 0
3.6832 6.7643 0
1.96847 9.62577 0
1.96847 10.3742 0
4.48642 4.36167 0
4.95302 4.51843 0
4.95296 15.4816 0
4.48642 15.6383 0
7.21611 8.01826 0
7.62157 7.73927 0
7.27884 7.48186 0
7.98009 8.18799 0
8.02277 11.9368 0
7.74038 12.4829 0
1.92708 11.9609 0
2.35927 12.041 0
2.28636 11.5819 0
2.29524 8.42561 0
2.36815 7.96648 0
1.92708 8.03909 0
6.18085 10.672 0
7.12211 6.63541 0
7.36639 7.11845 0
10.7668 2.41058 0
10.5706 1.99094 0
10.5706 18.0091 0
10.7668 17.5894 0
11.0256 4.0945 0
11.4849 3.90487 0
11.4849 16.0951 0
11.0256 15.9055 0
7.62684 14.6322 0
7.9868 15.0005 0
7.9868 4.9995 0
7.61125 5.31744 0
3.11531 5.40137 0
3.62801 5.59464 0
3.5127 5.19327 0
3.5127 14.8067 0
3.62801 14.4054 0
3.11531 14.5986 0
9.69511 4.96036 0
9.90388 5.26482 0
[...]
POINT_DATA 980
SCALARS GMDS_ID int 1
LOOKUP_TABLE default
0 1 2 3 4 5 6 7 8 9 10 11 12 13 14 15 16 17 18 19 20 21 22 23 24 25 26 27 28 29 30 31 32 33 34 35 36 37 38 39 40 41 42 43 44 45 46 47 48 49 50 51 52 53 54 55 56 57 58 59 60 61 62 63 64 65 66 67 68 69 70 71 72 73 74 75 76 77 78 79 80 81 82 83 84 85 86 87 88 89 90 91 92 93 94 95 96 97 98 99 100 101 102 103 104 105 106 107 108 109 110 111 112 113 114 115 116 117 118 119 120 121 122 123 124 125 126 127 128 129 130 131 132 133 134 135 136 137 138 139 140 141 142 143 144 145 146 147 148 149 150 151 152 153 154 155 156 157 158 159 160 161 162 163 164 165 166 167 168 169 170 171 172 173 174 175 176 177 178 179 180 181 182 183 184 185 186 187 188 189 190 191 192 193 194 195 196 197 198 199 200 201 202 203 204 205 206 207 208 209 210 211 212 213 214 215 216 217 218 219 220 221 222 223 224 225 226 227 228 229 230 231 232 233 234 235 236 237 238 239 240 241 242 243 244 245 246 247 248 249 250 251 252 253 254 255 256 257 258 259 260 261 262 263 264 265 266 267 268 269 270 271 272 273 274 275 276 277 278 279 280 281 282 283 284 285 286 287 288 289 290 291 292 293 294 295 296 297 298 299 300 301 302 303 304 305 306 307 308 309 310 311 312 313 314 315 316 317 318 319 320 321 322 323 324 325 326 327 328 329 330 331 332 333 334 335 336 337 338 339 340 341 342 343 344 345 346 347 348 349 350 351 352 353 354 355 356 357 358 359 360 361 362 363 364 365 366 367 368 369 370 371 372 373 374 375 376 377 378 379 380 381 382 383 384 385 386 387 388 389 390 391 392 393 394 395 396 397 398 399 400 401 402 403 404 405 406 407 408 409 410 411 412 413 414 415 416 417 418 419 420 421 422 423 424 425 426 427 428 429 430 431 432 433 434 435 436 437 438 439 440 441 442 443 444 445 446 447 448 449 450 451 452 453 454 455 456 457 458 459 460 461 462 463 464 465 466 467 468 469 470 471 472 473 474 475 476 477 478 479 480 481 482 483 484 485 486 487 488 489 490 491 492 493 494 495 496 497 498 499 500 501 502 503 504 505 506 507 508 509 510 511 512 513 514 515 516 517 518 519 520 521 522 523 524 525 526 527 528 529 530 531 532 533 534 535 536 537 538 539 540 541 542 543 544 545 546 547 548 549 550 551 552 553 554 555 556 557 558 559 560 561 562 563 564 565 566 567 568 569 570 571 572 573 574 575 576 577 578 579 580 581 582 583 584 585 586 587 588 589 590 591 592 593 594 595 596 597 598 599 600 601 602 603 604 605 606 607 608 609 610 611 612 613 614 615 616 617 618 619 620 621 622 623 624 625 626 627 628 629 630 631 632 633 634 635 636 637 638 639 640 641 642 643 644 645 646 647 648 649 650 651 652 653 654 655 656 657 658 659 660 661 662 663 664 665 666 667 668 669 670 671 672 673 674 675 676 677 678 679 680 681 682 683 684 685 686 687 688 689 690 691 692 693 694 695 696 697 698 699 700 701 702 703 704 705 706 707 708 709 710 711 712 713 714 715 716 717 718 719 720 721 722 723 724 725 726 727 728 729 730 731 732 733 734 735 736 737 738 739 740 741 742 743 744 745 746 747 748 749 750 751 752 753 754 755 756 757 758 759 760 761 762 763 764 765 766 767 768 769 770 771 772 773 774 775 776 777 778 779 780 781 782 783 784 785 786 787 788 789 790 791 792 793 794 795 796 797 798 799 800 801 802 803 804 805 806 807 808 809 810 811 812 813 814 815 816 817 818 819 820 821 822 823 824 825 826 827 828 829 830 831 832 833 834 835 836 837 838 839 840 841 842 843 844 845 846 847 848 849 850 851 852 853 854 855 856 857 858 859 860 861 862 863 864 865 866 867 868 869 870 871 872 873 874 875 876 877 878 879 880 881 882 883 884 885 886 887 888 889 890 891 892 893 894 895 896 897 898 899 900 901 902 903 904 905 906 907 908 909 910 911 912 913 914 915 916 917 918 919 920 921 922 923 924 925 926 927 928 929 930 931 932 933 934 935 936 937 938 939 940 941 942 943 944 945 946 947 948 949 950 951 952 953 954 955 956 957 958 959 960 961 962 963 964 965 966 967 968 969 970 971 972 973 974 975 976 977 978 979 
SCALARS angle float 1
LOOKUP_TABLE default
0 0 0 0 5.92897 5.44441 5.0082 4.60606 4.22657 3.86077 3.50153 3.14319 2.78127 2.41235 2.03404 1.6451 1.24547 0.836338 0.420081 0 5.8631 5.44685 5.03772 4.63808 4.24914 3.87084 3.50192 3.14 2.78166 2.42242 2.05661 1.67713 1.27498 0.838771 0.354218 0.354218 0.838771 1.27498 1.67713 2.05661 2.42242 2.78166 3.14 3.50192 3.87084 4.24914 4.63808 5.03772 5.44685 5.8631 6.28319 0.420081 0.836338 1.24547 1.6451 2.03404 2.41235 2.78127 3.14319 3.50153 3.86077 4.22657 4.60606 5.0082 5.44441 5.92897 5.92897 5.44441 5.0082 4.60606 4.22657 3.86077 3.50153 3.14319 2.78127 2.41235 2.03404 1.6451 1.24547 0.836338 0.420081 0 5.8631 5.44685 5.03772 4.63808 4.24914 3.87084 3.50192 3.14 2.78166 2.42242 2.05661 1.67713 1.27498 0.838771 0.354218 3.34884 3.19134 3.02796 2.85466 2.66729 2.46125 2.2313 1.97133 1.6744 1.33309 0.940617 0.493074 6.28319 5.79011 5.34257 4.9501 4.60879 4.31186 4.05189 3.82193 3.6159 3.42852 3.25522 3.09185 2.93435 2.92765 3.33872 2.85944 2.08664 3.98601 2.52889 3.79081 3.64739 2.52293 0.754734 2.32654 4.47322 2.19127 4.01807 3.52999 2.40379 3.69836 5.62963 2.87932 3.33117 3.8418 2.5083 2.63584 3.58587 1.82464 4.47694 1.49763 3.89807 2.16308 3.9847 2.13769 4.02397 1.9321 3.41838 2.74562 4.71046 2.86308 3.39036 2.22189 4.15242 2.89061 3.38334 3.65219 2.55851 0.521579 2.28842 3.83915 3.42531 2.84539 4.43023 1.82092 0.149947 3.21835 2.94906 1.89052 2.45556 3.69576 4.77832 1.63583 1.3126 4.93553 3.06694 3.17551 5.82259 0.293605 3.20335 2.95594 2.49908 3.69188 1.6462 2.10535 4.08579 0.847724 3.73827 2.44944 4.03046 2.31452 3.84923 1.96481 2.95489 3.34504 4.41527 5.42402 2.9572 3.36614 4.10769 2.44426 3.76518 2.61347 3.67783 1.2421 5.0951 2.33434 3.93925 4.20327 2.0956 2.65039 3.62929 3.29757 2.99984 3.2052 3.89033 2.31525 3.68096 2.2202 3.47817 2.79507 2.34329 3.95724 2.4455 3.22721 2.9801 1.67841 4.6971 4.32129 1.78592 1.29752 3.87577 2.19208 3.56339 2.64939 6.13038 1.20399 4.78604 6.20992 5.0387 3.8696 2.28046 3.61792 2.90146 3.40272 1.1721 1.05796 5.0988 4.97738 3.73676 2.42173 1.73112 4.49532 5.96635 3.52816 2.60005 2.16883 3.32066 2.96582 5.696 0.363159 4.00869 2.15082 1.51989 1.69337 5.04004 2.35918 3.77752 3.74593 2.50665 0.399651 2.48287 3.88261 4.11906 2.95656 3.27506 3.45339 2.70348 2.90822 3.36719 3.9015 1.28521 3.4958 2.11374 4.31725 2.06145 4.2915 3.11303 3.11207 1.91063 2.53282 3.76864 2.84544 3.32018 3.59236 2.61555 3.49258 2.74234 4.79966 1.34817 2.57566 4.37418 2.35696 3.98045 1.79995 4.40215 3.61834 2.61918 2.71542 3.5824 2.3767 3.73857 5.57002 0.719164 5.99991 5.57257 6.03223 0.0368233 0.642026 0.106063 5.40133 4.86059 1.6343 0.856176 1.32904 1.43341 1.00333 5.31173 4.91788 5.00965 2.29857 2.39735 2.33659 3.86904 3.76264 3.87496 2.46404 2.78964 2.67513 2.16884 2.26687 2.25109 3.86739 3.87779 3.93179 2.19455 2.20137 2.90239 2.63351 1.07456 1.19963 0.644861 0.428859 0.51638 0.762575 3.59994 3.13883 2.67351 2.55581 2.74073 3.42313 3.60056 3.52118 5.82809 6.18702 6.04778 2.98374 2.82678 3.03131 3.27184 3.44164 3.31978 5.43886 6.24063 6.26063 0.760675 1.12875 0.433399 6.14223 5.70623 5.05281 2.77326 2.90927 3.26408 3.36699 2.32288 2.16557 2.14816 2.71912 2.78891 3.06691 3.92627 3.92257 3.78035 1.88488 2.56586 3.92494 4.16944 4.13485 2.18933 2.11427 2.39121 4.024 3.5996 2.25047 3.93368 5.55063 5.67701 1.99075 1.64981 4.70511 3.12027 3.34306 2.94677 3.17871 1.64093 3.68753 3.885 3.73952 2.44623 2.3098 2.53956 0.0868468 0.370226 4.99354 5.08858 0.934108 1.04742 2.66174 2.55555 4.12172 2.07659 2.79517 2.85706 3.22797 2.98478 3.39615 3.41469 1.7883 1.73757 1.34645 1.0425 1.48047 5.29087 4.98514 4.83938 1.68796 4.53485 4.08187 3.58715 3.78069 4.04608 2.1993 2.57184 2.6956 2.78046 3.45709 2.75115 2.90979 3.0069 3.15827 3.27902 3.48865 2.82922 3.48816 3.0248 3.50951 3.58793 3.81811 3.18 3.08305 2.37199 3.836 3.25816 0.965224 1.75483 4.5654 5.37512 3.9708 4.29505 4.28666 1.83437 1.84367 2.15575 2.79089 2.7892 3.46621 3.47317 4.36045 4.02359 2.33043 1.92268 4.50649 0.615087 1.3962 4.87552 5.65882 2.52642 2.41488 3.71172 3.58815 2.82265 3.08971 3.09048 0.0526467 3.55139 3.49812 2.74379 2.67171 2.24938 3.93093 1.75013 2.07428 4.17543 4.4688 1.36994 1.53551 1.64826 1.42203 5.01621 4.58222 3.86016 3.74613 3.8339 2.31156 2.42272 2.29272 5.8961 2.16836 1.89111 3.57642 3.17812 3.08872 2.67221 4.64792 4.77588 1.55333 1.70603 3.24675 3.04008 3.13908 2.90895 3.13007 2.59289 1.17204 4.90521 3.66141 3.17482 3.94646 3.99182 4.23908 2.16078 2.35988 2.39118 4.53339 4.14154 1.9672 1.62635 4.80217 4.54124 1.41287 1.04931 0.255694 0.626172 3.22427 3.41957 3.28261 2.95617 2.81396 2.98756 2.34824 2.22712 3.87162 3.80228 3.11489 3.27382 2.98314 3.12321 3.6478 3.67575 2.50296 2.54977 2.2241 2.04129 4.1748 4.01496 3.37731 3.25399 3.63355 2.71671 3.15428 3.08207 3.10085 3.03875 2.43235 3.80075 1.69105 2.00778 1.90046 4.18087 4.19467 3.95685 3.7397 2.55469 2.38342 3.65399 3.7194 3.67895 3.6086 3.62328 2.50982 2.56194 2.58122 2.55487 3.63387 1.56635 4.56261 3.23601 2.94593 2.66924 2.41355 2.49494 3.68419 3.73008 3.17868 3.07779 3.28523 2.934 3.1769 3.05347 4.22958 4.05356 2.37193 2.09182 3.59229 2.9717 2.74367 2.82434 3.48135 3.57154 3.33423 0.484113 1.6858 4.06022 5.34952 2.46743 2.41368 3.87994 4.13036 2.61439 2.83895 3.39558 3.56382 0.442371 5.61387 1.92859 2.32913 2.27992 2.11043 0.00752058 6.00455 2.31029 3.84547 2.62649 2.66749 3.6482 3.6852 2.46752 3.63688 2.73941 2.55628 3.65831 3.47546 2.00026 2.05931 4.12664 4.15877 5.44056 5.21836 5.17146 3.61366 3.61729 3.77561 2.44615 2.59427 2.62027 5.86411 0.212416 3.28744 2.91887 2.90539 5.06642 3.67715 3.6874 3.67674 3.72579 3.65772 3.57223 3.51259 1.17117 1.0604 0.821472 2.77238 2.96785 3.28296 3.51489 2.48773 3.83253 1.93156 1.89525 2.7706 3.59819 3.85319 4.46268 1.73613 2.39356 3.94694 3.81672 4.42485 4.9064 4.01935 3.40414 3.3454 2.87713 2.83514 2.08365 2.91819 3.38521 2.90463 3.33627 4.19591 2.24173 1.18883 2.08895 2.37502 2.08273 4.14441 3.87575 4.20481 3.7095 2.56914 3.77478 1.81742 4.36218 4.0919 1.65129 1.90429 0.570155 0.993215 0.974966 1.35291 0.605228 5.61804 4.783 5.30542 5.26679 4.47392 1.76675 3.82376 3.67096 3.74158 1.90235 1.56594 1.88125 4.00088 3.85949 2.31797 2.13038 1.32617 3.37459 2.79178 2.15101 5.1142 4.8688 1.22686 1.38456 2.4353 2.30434 2.42608 3.90069 4.02608 3.88177 2.1753 2.21392 4.13702 4.14829 1.73413 4.57876 4.25166 4.37131 3.9345 2.26556 2.49027 2.46396 2.47016 2.48761 2.44494 2.60803 3.69729 2.76301 2.81238 2.9104 3.31975 3.4275 3.50009 2.74198 3.50516 3.65055 3.71874 2.56609 2.66545 4.44371 4.77124 1.28481 1.6454 3.51147 3.62888 2.92952 2.88678 3.42662 3.52712 2.91586 2.84645 3.44191 3.34367 3.5768 3.21407 2.70276 2.47975 3.72536 4.65984 3.33639 3.58048 2.75009 2.96255 1.81765 3.03096 3.19545 3.05377 3.15899 4.22329 4.14206 4.15033 4.08648 4.15538 4.66456 5.68363 4.40664 1.89504 4.27227 5.5204 5.09538 3.4329 3.21086 3.01639 2.71487 1.71348 1.57755 4.62547 4.52336 3.33417 2.84065 2.86577 3.42364 4.74066 1.76065 4.5046 1.5715 0.291036 6.27108 6.09238 0.921311 5.28304 2.44548 3.80221 2.31337 3.70877 5.81129 3.54555 2.70806 3.81145 2.33619 5.82186 3.90382 4.16472 2.02875 4.14662 4.42049 3.41987 2.7133 3.18298 3.11854 3.69044 2.49716 3.61878 2.57275 4.14598 1.98444 4.75324 1.37628 2.78241 3.49421 2.41153 2.31133 2.40907 2.13372 1.82889 4.54545 3.65661 2.5642 3.25019 2.98268 3.56216 2.65216 2.35063 1.005 5.16852 3.51135 2.7272 0.70939 0.987505 0.679873 5.61144 5.33218 5.58781 5.78453 0.478434 1.44254 3.63075 2.47337 2.48669 2.69796 3.56096 3.77249 3.52338 2.70627 3.62172 3.75025 2.55864 2.66675 3.70464 2.58464 2.50844 3.80285 1.18343 4.96703 1.87271 1.93128 4.40099 4.50172 2.12005 1.96765 4.42815 4.25209 3.54445 2.6827 1.44564 4.72886 1.86803 4.5348 3.80282 4.72 1.44302 2.28305 3.00591 3.23668 2.28357 2.2812 4.07311 2.4276 3.89913 3.80086 
VECTORS cross_X float