# vtk DataFile Version 3.0
Generated by GMDS VTK Writer

ASCII
DATASET UNSTRUCTURED_GRID
POINTS 261 float
3 15 0
13 15 0
13 5 0
3 5 0
3.08624 15.9712 0
3.39209 16.8981 0
3.87225 17.7482 0
4.49785 18.4979 0
5.24757 19.1234 0
6.10029 19.5987 0
7.02943 19.8977 0
8 20 0
8.97057 19.8977 0
9.89971 19.5987 0
10.7524 19.1234 0
11.5021 18.4979 0
12.1278 17.7482 0
12.6079 16.8981 0
12.9138 15.9712 0
12.0288 14.9138 0
11.1019 14.6079 0
10.2518 14.1278 0
9.50215 13.5021 0
8.87665 12.7524 0
8.40134 11.8997 0
8.10231 10.9706 0
8 10 0
8.10231 9.02943 0
8.40134 8.10029 0
8.87665 7.24757 0
9.50215 6.49785 0
10.2518 5.87225 0
11.1019 5.39209 0
12.0288 5.08624 0
12.9138 4.02876 0
12.6079 3.10195 0
12.1278 2.25184 0
11.5021 1.50215 0
10.7524 0.876646 0
9.89971 0.401336 0
8.97057 0.102306 0
8 -1.11022e-16 0
7.02943 0.102306 0
6.10029 0.401336 0
5.24757 0.876646 0
4.49785 1.50215 0
3.87225 2.25184 0
3.39209 3.10195 0
3.08624 4.02876 0
2.31387 5.61847 0
1.67954 6.28991 0
1.1083 7.01566 0
0.619513 7.79908 0
0.244333 8.64238 0
0.0294485 9.53926 0
0.0294485 10.4607 0
0.244333 11.3576 0
0.619513 12.2009 0
1.1083 12.9843 0
1.67954 13.7101 0
2.31387 14.3815 0
3.78567 9.86558 0
6.86618 15.7071 0
6.86618 4.29292 0
5.44384 7.11089 0
5.40224 12.8985 0
9.44051 16.7444 0
9.44051 3.2556 0
3.44617 12.1432 0
3.4354 7.85511 0
6.0154 9.32793 0
7.68928 18.1252 0
7.68928 1.87477 0
5.0949 5.1545 0
5.0949 14.8455 0
1.70035 10 0
7.19572 6.23678 0
7.09231 13.7985 0
6.37188 11.0319 0
8.45323 14.9956 0
8.45323 5.00439 0
5.22213 16.636 0
5.22213 3.36396 0
3.90868 6.40042 0
3.90868 13.5996 0
11.0875 16.3642 0
11.0875 3.63581 0
6.87338 7.76085 0
4.64445 11.4009 0
4.56212 8.62556 0
1.85417 11.5018 0
1.85417 8.49822 0
9.1281 18.2587 0
9.1281 1.74127 0
6.12917 2.09667 0
6.12917 17.9033 0
6.94834 12.3974 0
8.07555 16.5562 0
8.07555 3.44375 0
9.94488 15.4667 0
9.94488 4.53332 0
10.3862 17.7193 0
10.3862 2.28073 0
3.02587 10.8807 0
3.2091 9.23439 0
5.26268 10.0463 0
5.98575 5.99421 0
5.95876 14.0152 0
2.9052 13.3917 0
2.9052 6.60826 0
4.48991 16.0308 0
4.48991 3.96924 0
6.69367 9.97115 0
8.62373 13.8287 0
8.37595 6.05783 0
7.6843 7.20287 0
4.18345 7.39499 0
4.21123 12.5968 0
6.90577 1.24685 0
6.90577 18.7531 0
1.10874 9.26094 0
1.10874 10.7391 0
6.72123 17.1305 0
6.72123 2.86951 0
8.29229 18.9232 0
8.29229 1.07684 0
7.52036 15.0054 0
7.52036 4.99461 0
6.12989 4.93938 0
6.12872 15.061 0
5.56493 8.21219 0
4.02539 5.38654 0
4.02539 14.6135 0
6.99917 8.93051 0
1.99999 12.42 0
1.99999 7.57996 0
7.83657 12.992 0
4.89143 6.10748 0
4.89143 13.8925 0
6.44057 6.93568 0
5.09482 2.3471 0
5.09482 17.6529 0
5.52531 11.8691 0
7.17411 11.3757 0
8.456 17.5085 0
8.456 2.49155 0
6.37606 13.1085 0
11.1474 17.4596 0
11.1474 2.54044 0
9.48074 14.5964 0
9.44534 5.3874 0
11.8823 15.8261 0
11.8823 4.17392 0
5.42311 4.28277 0
5.42299 15.7173 0
4.29976 16.8732 0
4.29976 3.12676 0
8.76978 16.0288 0
8.76978 3.97122 0
3.23063 14.1973 0
3.23063 5.80274 0
2.84357 10.0942 0
9.97234 18.5451 0
9.97234 1.45488 0
3.75451 11.3917 0
4.61131 9.53994 0
6.16096 16.4367 0
6.16096 3.56326 0
10.2171 16.8555 0
10.2171 3.14452 0
3.70631 8.59963 0
7.84015 4.213 0
7.84015 15.787 0
10.9636 15.4468 0
10.9636 4.55319 0
1.05038 11.5739 0
1.05038 8.42615 0
7.55885 8.27568 0
6.07929 1.33863 0
6.07929 18.6614 0
3.48212 12.8808 0
3.45772 7.12818 0
0.722195 10 0
9.2447 0.940921 0
9.2447 19.0591 0
5.98982 10.3121 0
5.37592 10.8788 0
2.23659 10.7485 0
2.23659 9.25153 0
4.46141 10.6122 0
9.47737 17.4861 0
9.47737 2.51394 0
6.31947 8.50588 0
3.76435 4.51389 0
3.76435 15.4861 0
6.36206 11.8767 0
2.71856 11.662 0
2.73631 8.35301 0
11.8293 16.6849 0
11.8293 3.31508 0
7.35354 10.5673 0
6.82504 14.593 0
6.8157 5.42402 0
4.8115 7.8129 0
5.86566 17.1519 0
5.86566 2.8481 0
7.5258 0.778274 0
7.5258 19.2217 0
1.32647 12.1362 0
1.32647 7.86381 0
5.22219 9.03072 0
6.07491 7.64717 0
7.64419 11.9738 0
4.67786 6.87302 0
4.68329 13.1379 0
6.87305 2.02319 0
6.87305 17.9768 0
7.38361 9.62332 0
3.98108 9.22184 0
4.79318 12.2452 0
7.06093 13.0849 0
10.7551 1.70116 0
10.7551 18.2988 0
5.40974 1.63224 0
5.40974 18.3678 0
7.54693 17.2398 0
7.54693 2.76015 0
8.39206 18.1934 0
8.39206 1.80665 0
3.61324 10.6004 0
10.3588 14.8555 0
10.3624 5.14224 0
10.3376 16.0913 0
10.3376 3.90867 0
7.20183 3.52377 0
7.20183 16.4762 0
7.04849 7.03404 0
9.22693 15.3961 0
9.22693 4.6039 0
7.70214 5.64026 0
7.73332 14.259 0
2.77594 12.6135 0
2.77303 7.39022 0
2.13047 13.2502 0
2.12999 6.75041 0
3.80647 16.2519 0
3.80647 3.74812 0
8.33278 6.79614 0
6.01188 12.472 0
9.60377 16.0735 0
9.60377 3.92649 0
4.48293 4.75409 0
4.48293 15.2459 0
6.14471 15.7305 0
6.14504 4.26958 0
8.7414 16.771 0
8.7414 3.22901 0
4.15001 8.09113 0
4.19226 11.9036 0
12.4636 4.56502 0
12.4636 15.435 0

CELLS 459 1836
3 125 206 72 
3 124 71 207 
3 206 118 72 
3 207 71 119 
3 19 173 151 
3 33 152 174 
3 73 106 128 
3 74 129 107 
3 76 247 114 
3 64 106 137 
3 65 138 107 
3 76 115 247 
3 76 114 239 
3 70 210 105 
3 70 112 133 
3 22 23 113 
3 63 128 202 
3 62 201 129 
3 78 200 112 
3 49 244 109 
3 60 108 243 
3 11 12 124 
3 40 41 125 
3 75 120 182 
3 75 182 121 
3 63 202 127 
3 62 126 201 
3 76 106 139 
3 61 104 161 
3 77 146 107 
3 247 28 29 
3 81 154 110 
3 82 111 153 
3 23 136 113 
3 73 137 106 
3 74 107 138 
3 78 143 200 
3 64 139 106 
3 19 20 173 
3 32 33 174 
3 60 159 108 
3 49 109 160 
3 115 28 247 
3 84 132 138 
3 83 137 131 
3 70 105 185 
3 12 184 124 
3 40 125 183 
3 61 218 104 
3 74 138 132 
3 73 131 137 
3 15 147 222 
3 37 221 148 
3 105 210 165 
3 198 18 151 
3 152 34 199 
3 17 18 198 
3 199 34 35 
3 65 107 146 
3 6 141 155 
3 46 156 140 
3 49 50 244 
3 59 60 243 
3 79 149 113 
3 80 114 150 
3 22 113 149 
3 30 150 114 
3 77 240 136 
3 6 7 141 
3 45 46 140 
3 15 16 147 
3 36 37 148 
3 113 136 240 
3 9 10 119 
3 42 43 118 
3 90 187 121 
3 91 120 188 
3 83 160 109 
3 84 108 159 
3 81 110 155 
3 82 156 111 
3 23 24 136 
3 53 54 120 
3 55 56 121 
3 76 202 106 
3 77 107 201 
3 30 114 247 
3 79 113 240 
3 80 239 114 
3 70 185 112 
3 84 180 108 
3 83 109 181 
3 75 188 120 
3 75 121 187 
3 111 251 153 
3 110 154 252 
3 87 177 115 
3 28 115 177 
3 24 212 136 
3 90 134 196 
3 91 197 135 
3 78 112 185 
3 76 236 115 
3 102 148 221 
3 101 222 147 
3 86 174 152 
3 85 151 173 
3 79 240 126 
3 80 127 239 
3 3 160 131 
3 0 132 159 
3 29 30 247 
3 83 131 160 
3 84 159 132 
3 100 150 231 
3 99 230 149 
3 90 121 175 
3 91 176 120 
3 92 124 184 
3 93 183 125 
3 112 217 133 
3 235 62 166 
3 234 167 63 
3 64 137 213 
3 65 214 138 
3 122 235 166 
3 123 167 234 
3 134 241 196 
3 135 197 242 
3 73 153 251 
3 74 252 154 
3 61 161 229 
3 81 155 141 
3 82 140 156 
3 62 172 126 
3 63 127 171 
3 73 128 153 
3 74 154 129 
3 87 115 236 
3 9 119 179 
3 43 178 118 
3 100 238 150 
3 99 149 237 
3 106 202 128 
3 107 129 201 
3 68 117 258 
3 68 180 117 
3 69 116 181 
3 83 181 116 
3 84 117 180 
3 53 120 176 
3 56 175 121 
3 61 189 165 
3 83 116 213 
3 84 214 117 
3 94 205 123 
3 95 122 204 
3 72 118 215 
3 71 216 119 
3 105 165 189 
3 144 190 255 
3 145 256 191 
3 93 125 228 
3 92 227 124 
3 69 257 116 
3 77 220 146 
3 95 216 122 
3 94 123 215 
3 10 207 119 
3 42 118 206 
3 76 139 236 
3 116 203 213 
3 64 213 203 
3 54 182 120 
3 55 121 182 
3 119 216 179 
3 118 178 215 
3 66 255 190 
3 67 191 256 
3 95 179 216 
3 94 215 178 
3 63 254 128 
3 62 129 253 
3 16 198 147 
3 36 148 199 
3 25 143 212 
3 58 243 134 
3 51 135 244 
3 41 206 125 
3 11 124 207 
3 80 171 127 
3 79 126 172 
3 71 124 227 
3 72 228 125 
3 68 164 196 
3 103 196 164 
3 103 229 161 
3 27 177 133 
3 122 216 225 
3 123 226 215 
3 35 36 199 
3 16 17 198 
3 21 22 149 
3 30 31 150 
3 64 203 130 
3 71 225 216 
3 72 215 226 
3 13 14 162 
3 38 39 163 
3 24 25 212 
3 65 219 214 
3 96 136 212 
3 92 162 190 
3 93 191 163 
3 102 163 191 
3 101 190 162 
3 31 231 150 
3 21 149 230 
3 87 133 177 
3 85 168 147 
3 86 148 169 
3 102 169 148 
3 101 147 168 
3 117 214 219 
3 73 251 131 
3 74 132 252 
3 77 136 220 
3 64 130 211 
3 27 133 217 
3 70 133 192 
3 3 131 193 
3 0 194 132 
3 78 195 143 
3 5 6 155 
3 46 47 156 
3 88 189 164 
3 89 210 130 
3 90 208 134 
3 91 135 209 
3 87 192 133 
3 92 190 144 
3 93 145 191 
3 89 130 203 
3 96 143 195 
3 70 130 210 
3 70 192 130 
3 66 168 249 
3 67 250 169 
3 168 232 249 
3 169 250 233 
3 87 236 139 
3 96 248 146 
3 58 134 208 
3 51 209 135 
3 58 59 243 
3 50 51 244 
3 0 159 60 
3 3 49 160 
3 69 197 170 
3 104 170 197 
3 66 190 168 
3 67 169 191 
3 101 168 190 
3 102 191 169 
3 97 157 172 
3 98 171 158 
3 79 172 157 
3 80 158 171 
3 81 166 154 
3 82 153 167 
3 13 162 184 
3 39 183 163 
3 83 213 137 
3 84 138 214 
3 164 189 229 
3 71 144 225 
3 72 226 145 
3 97 225 144 
3 98 145 226 
3 75 187 161 
3 75 161 188 
3 104 188 161 
3 103 161 187 
3 96 195 248 
3 27 28 177 
3 81 141 204 
3 82 205 140 
3 64 211 139 
3 95 204 141 
3 94 140 205 
3 62 235 172 
3 63 171 234 
3 88 186 189 
3 65 142 219 
3 88 142 186 
3 105 189 186 
3 96 220 136 
3 52 53 176 
3 56 57 175 
3 78 186 142 
3 94 223 140 
3 95 141 224 
3 111 156 246 
3 110 245 155 
3 45 140 223 
3 7 224 141 
3 123 205 167 
3 122 166 204 
3 78 142 195 
3 85 147 198 
3 86 199 148 
3 92 184 162 
3 93 163 183 
3 87 139 211 
3 26 217 200 
3 3 193 48 
3 0 4 194 
3 104 218 170 
3 43 44 178 
3 8 9 179 
3 26 27 217 
3 68 258 164 
3 25 200 143 
3 80 150 238 
3 79 237 149 
3 85 198 151 
3 86 152 199 
3 54 55 182 
3 39 40 183 
3 12 13 184 
3 112 200 217 
3 90 196 187 
3 91 188 197 
3 10 11 207 
3 41 42 206 
3 105 186 185 
3 103 187 196 
3 104 197 188 
3 78 185 186 
3 25 26 200 
3 96 212 143 
3 88 219 142 
3 57 58 208 
3 51 52 209 
3 65 248 142 
3 77 201 240 
3 76 239 202 
3 126 240 201 
3 127 202 239 
3 71 227 144 
3 72 145 228 
3 44 45 223 
3 7 8 224 
3 68 196 241 
3 69 242 197 
3 90 175 208 
3 91 209 176 
3 5 155 245 
3 47 246 156 
3 92 144 227 
3 93 228 145 
3 65 146 248 
3 97 144 255 
3 98 256 145 
3 96 146 220 
3 69 170 257 
3 89 218 165 
3 20 21 230 
3 31 32 231 
3 14 15 222 
3 37 38 221 
3 98 234 171 
3 97 172 235 
3 68 241 180 
3 69 181 242 
3 89 170 218 
3 47 48 246 
3 4 5 245 
3 108 180 241 
3 109 242 181 
3 18 260 151 
3 19 151 260 
3 33 259 152 
3 34 152 259 
3 2 259 33 
3 1 260 18 
3 1 19 260 
3 2 34 259 
3 130 192 211 
3 94 178 223 
3 95 224 179 
3 87 211 192 
3 153 254 167 
3 154 166 253 
3 14 222 162 
3 38 163 221 
3 101 162 222 
3 102 221 163 
3 89 165 210 
3 81 204 166 
3 82 167 205 
3 129 154 253 
3 128 254 153 
3 67 256 158 
3 66 157 255 
3 98 158 256 
3 97 255 157 
3 80 238 158 
3 79 157 237 
3 66 249 157 
3 67 158 250 
3 61 165 218 
3 103 164 229 
3 57 208 175 
3 52 176 209 
3 48 193 246 
3 4 245 194 
3 85 173 232 
3 86 233 174 
3 99 232 173 
3 100 174 233 
3 134 243 241 
3 135 242 244 
3 108 241 243 
3 109 244 242 
3 111 246 193 
3 110 194 245 
3 85 232 168 
3 86 169 233 
3 20 230 173 
3 32 174 231 
3 88 164 258 
3 63 167 254 
3 62 253 166 
3 99 173 230 
3 100 231 174 
3 132 194 252 
3 131 251 193 
3 44 223 178 
3 8 179 224 
3 61 229 189 
3 89 257 170 
3 110 252 194 
3 111 193 251 
3 142 248 195 
3 122 225 235 
3 123 234 226 
3 116 257 203 
3 89 203 257 
3 99 249 232 
3 100 233 250 
3 98 226 234 
3 97 235 225 
3 99 237 249 
3 100 250 238 
3 157 249 237 
3 158 238 250 
3 117 219 258 
3 88 258 219 

CELL_TYPES 459
5 
5 
5 
5 
5 
5 
5 
5 
5 
5 
5 
5 
5 
5 
5 
5 
5 
5 
5 
5 
5 
5 
5 
5 
5 
5 
5 
5 
5 
5 
5 
5 
5 
5 
5 
5 
5 
5 
5 
5 
5 
5 
5 
5 
5 
5 
5 
5 
5 
5 
5 
5 
5 
5 
5 
5 
5 
5 
5 
5 
5 
5 
5 
5 
5 
5 
5 
5 
5 
5 
5 
5 
5 
5 
5 
5 
5 
5 
5 
5 
5 
5 
5 
5 
5 
5 
5 
5 
5 
5 
5 
5 
5 
5 
5 
5 
5 
5 
5 
5 
5 
5 
5 
5 
5 
5 
5 
5 
5 
5 
5 
5 
5 
5 
5 
5 
5 
5 
5 
5 
5 
5 
5 
5 
5 
5 
5 
5 
5 
5 
5 
5 
5 
5 
5 
5 
5 
5 
5 
5 
5 
5 
5 
5 
5 
5 
5 
5 
5 
5 
5 
5 
5 
5 
5 
5 
5 
5 
5 
5 
5 
5 
5 
5 
5 
5 
5 
5 
5 
5 
5 
5 
5 
5 
5 
5 
5 
5 
5 
5 
5 
5 
5 
5 
5 
5 
5 
5 
5 
5 
5 
5 
5 
5 
5 
5 
5 
5 
5 
5 
5 
5 
5 
5 
5 
5 
5 
5 
5 
5 
5 
5 
5 
5 
5 
5 
5 
5 
5 
5 
5 
5 
5 
5 
5 
5 
5 
5 
5 
5 
5 
5 
5 
5 
5 
5 
5 
5 
5 
5 
5 
5 
5 
5 
5 
5 
5 
5 
5 
5 
5 
5 
5 
5 
5 
5 
5 
5 
5 
5 
5 
5 
5 
5 
5 
5 
5 
5 
5 
5 
5 
5 
5 
5 
5 
5 
5 
5 
5 
5 
5 
5 
5 
5 
5 
5 
5 
5 
5 
5 
5 
5 
5 
5 
5 
5 
5 
5 
5 
5 
5 
5 
5 
5 
5 
5 
5 
5 
5 
5 
5 
5 
5 
5 
5 
5 
5 
5 
5 
5 
5 
5 
5 
5 
5 
5 
5 
5 
5 
5 
5 
5 
5 
5 
5 
5 
5 
5 
5 
5 
5 
5 
5 
5 
5 
5 
5 
5 
5 
5 
5 
5 
5 
5 
5 
5 
5 
5 
5 
5 
5 
5 
5 
5 
5 
5 
5 
5 
5 
5 
5 
5 
5 
5 
5 
5 
5 
5 
5 
5 
5 
5 
5 
5 
5 
5 
5 
5 
5 
5 
5 
5 
5 
5 
5 
5 
5 
5 
5 
5 
5 
5 
5 
5 
5 
5 
5 
5 
5 
5 
5 
5 
5 
5 
5 
5 
5 
5 
5 
5 
5 
5 
5 
5 
5 
5 
5 
5 
5 
5 
5 
5 
5 
5 
5 
5 
5 
5 
5 
5 
5 
5 
5 
5 
5 
5 
5 
5 
5 
5 
5 
5 
5 
5 
5 
5 
5 
5 
5 
POINT_DATA 261
SCALARS GMDS_ID int 1
LOOKUP_TABLE default
0 1 2 3 4 5 6 7 8 9 10 11 12 13 14 15 16 17 18 19 20 21 22 23 24 25 26 27 28 29 30 31 32 33 34 35 36 37 38 39 40 41 42 43 44 45 46 47 48 49 50 51 52 53 54 55 56 57 58 59 60 61 62 63 64 65 66 67 68 69 70 71 72 73 74 75 76 77 78 79 80 81 82 83 84 85 86 87 88 89 90 91 92 93 94 95 96 97 98 99 100 101 102 103 104 105 106 107 108 109 110 111 112 113 114 115 116 117 118 119 120 121 122 123 124 125 126 127 128 129 130 131 132 133 134 135 136 137 138 139 140 141 142 143 144 145 146 147 148 149 150 151 152 153 154 155 156 157 158 159 160 161 162 163 164 165 166 167 168 169 170 171 172 173 174 175 176 177 178 179 180 181 182 183 184 185 186 187 188 189 190 191 192 193 194 195 196 197 198 199 200 201 202 203 204 205 206 207 208 209 210 211 212 213 214 215 216 217 218 219 220 221 222 223 224 225 226 227 228 229 230 231 232 233 234 235 236 237 238 239 240 241 242 243 244 245 246 247 248 249 250 251 252 253 254 255 256 257 258 259 260 
SCALARS angle float 1
LOOKUP_TABLE default
4.43165 0 0 1.85154 5.46857 4.61738 3.86405 3.1414 2.40766 1.63976 0.832776 0 5.45041 4.64343 3.87553 3.14179 2.41914 1.6658 0.814615 0.814615 1.6658 2.41914 3.14179 3.87553 4.64343 5.45041 6.28319 0.832776 1.63976 2.40766 3.1414 3.86405 4.61738 5.46857 5.46857 4.61738 3.86405 3.1414 2.40766 1.63976 0.832776 0 5.45041 4.64343 3.87553 3.14179 2.41914 1.6658 0.814615 3.1884 2.84763 2.44929 1.95285 1.30752 0.470315 5.81287 4.97567 4.33033 3.83389 3.43556 3.09479 2.43192 3.75591 2.34117 1.86872 4.45952 2.49012 3.5466 3.97886 2.27808 0.592272 0.170038 0.0985959 1.92726 4.37683 0.0571681 2.12777 4.15466 5.5968 2.93241 2.93738 4.1624 2.10161 2.21562 4.05368 1.86051 4.33715 1.51123 4.59351 1.76875 4.19445 2.07717 4.75737 1.55987 3.52069 2.62292 4.85232 2.97924 2.84584 2.04905 4.14822 3.04556 3.15595 4.0432 2.17361 0.0709363 2.00143 4.30756 3.7189 2.54928 4.76017 1.56207 0.0349111 3.18867 2.61082 1.93685 2.13867 4.13634 5.58198 0.740726 0.708714 5.60279 3.25904 2.68836 6.03845 0.290809 3.50129 2.4736 2.09648 4.15957 1.4819 1.96292 4.32472 0.770739 3.86028 2.41183 4.37838 2.01582 4.27402 1.84396 3.10902 3.11969 4.87113 5.36342 3.90415 2.10798 4.54523 2.38713 3.85222 2.45616 3.69784 1.27084 4.87354 1.95768 4.33709 4.61303 1.68516 2.60691 3.32294 3.95462 2.32169 3.20345 4.11479 2.15965 4.13841 1.25498 3.84327 2.32078 2.31624 3.83497 2.12423 2.70702 3.17467 1.71268 4.51732 4.3886 1.89281 1.29294 3.95148 2.28459 3.91296 2.35299 0.00391734 1.28777 5.00411 6.10333 5.48216 4.36822 1.89784 4.86658 3.24357 2.82055 1.09983 1.26872 5.04314 5.11035 3.98667 2.26083 1.7996 4.43629 5.88621 3.98083 2.20241 1.88052 3.39159 2.73229 5.8807 0.413615 4.19913 2.08102 1.15526 1.60765 4.8779 2.04489 4.2401 4.21667 1.70826 0.255392 1.96115 4.40716 4.53049 2.63404 3.63317 3.75324 2.50793 3.1138 2.5273 5.615 0.85475 4.0155 1.82294 4.44354 1.99639 4.18965 2.53447 3.42742 1.86402 2.42623 3.63164 2.44211 3.53991 3.8083 2.45458 3.58064 2.69549 5.20212 1.1025 2.33527 4.75918 2.24294 3.86651 1.74063 4.57204 4.06866 2.15636 2.72916 3.14219 2.05776 4.22657 5.77926 0.526199 
VECTORS cross_X float
0.446531 0.894768 0 1 0 0 1 0 0 0.894768 0.446531 0 0.202249 0.979334 0 0.404517 0.914531 0 0.568585 0.822625 0 0.707141 0.707073 0 0.824253 0.566222 0 0.917145 0.398554 0 0.978406 0.206693 0 1 0 0 0.206693 0.978406 0 0.398554 0.917145 0 0.566222 0.824253 0 0.707073 0.707141 0 0.822625 0.568585 0 0.914531 0.404517 0 0.979334 0.202249 0 0.979334 0.202249 0 0.914531 0.404517 0 0.822625 0.568585 0 0.707073 0.707141 0 0.566222 0.824253 0 0.398554 0.917145 0 0.206693 0.978406 0 3.83599e-15 1 0 0.978406 0.206693 0 0.917145 0.398554 0 0.824253 0.566222 0 0.707141 0.707073 0 0.568585 0.822625 0 0.404517 0.914531 0 0.202249 0.979334 0 0.202249 0.979334 0 0.404517 0.914531 0 0.568585 0.822625 0 0.707141 0.707073 0 0.824253 0.566222 0 0.917145 0.398554 0 0.978406 0.206693 0 1 0 0 0.206693 0.978406 0 0.398554 0.917145 0 0.566222 0.824253 0 0.707073 0.707141 0 0.822625 0.568585 0 0.914531 0.404517 0 0.979334 0.202249 0 0.698784 0.715332 0 0.757118 0.653278 0 0.818315 0.57477 0 0.883173 0.469048 0 0.947049 0.321089 0 0.993096 0.117308 0 0.117308 0.993096 0 0.321089 0.947049 0 0.469048 0.883173 0 0.57477 0.818315 0 0.653278 0.757118 0 0.715332 0.698784 0 0.820804 0.57121 0 0.590614 0.806954 0 0.833551 0.552443 0 0.892842 0.45037 0 0.440286 0.897858 0 0.812406 0.583092 0 0.632011 0.774959 0 0.544743 0.838603 0 0.84216 0.539228 0 0.989058 0.147528 0 0.999097 0.0424966 0 0.999696 0.0246465 0 0.886155 0.463389 0 0.458752 0.888564 0 0.999898 0.0142915 0 0.861824 0.507207 0 0.507371 0.861728 0 0.170755 0.985313 0 0.743102 0.669179 0 0.74227 0.670101 0 0.505703 0.862708 0 0.865123 0.501561 0 0.850477 0.526013 0 0.528962 0.848645 0 0.893765 0.448536 0 0.467544 0.88397 0 0.929476 0.368884 0 0.409968 0.9121 0 0.903818 0.427918 0 0.498774 0.866732 0 0.86817 0.496267 0 0.372271 0.928124 0 0.924922 0.380158 0 0.637018 0.770849 0 0.792603 0.609738 0 0.350137 0.936699 0 0.735217 0.677832 0 0.75741 0.65294 0 0.871638 0.49015 0 0.508759 0.860909 0 0.723877 0.689929 0 0.704564 0.70964 0 0.531183 0.847257 0 0.855954 0.517052 0 0.999843 0.0177331 0 0.877411 0.479739 0 0.474068 0.880488 0 0.598055 0.801455 0 0.803693 0.595044 0 0.37162 0.928385 0 0.924712 0.380668 0 0.999962 0.00872765 0 0.698736 0.715379 0 0.794443 0.607338 0 0.885042 0.465512 0 0.860438 0.509554 0 0.511312 0.859395 0 0.174404 0.984674 0 0.982903 0.184125 0 0.984345 0.176253 0 0.169279 0.985568 0 0.686043 0.727561 0 0.782522 0.622624 0 0.061146 0.998129 0 0.997358 0.0726382 0 0.64075 0.76775 0 0.814807 0.579733 0 0.865765 0.500451 0 0.506312 0.86235 0 0.932156 0.362058 0 0.881989 0.471269 0 0.470288 0.882513 0 0.981494 0.191495 0 0.569359 0.822089 0 0.823662 0.567082 0 0.458407 0.888742 0 0.875679 0.482893 0 0.481435 0.876482 0 0.895613 0.444835 0 0.712841 0.701326 0 0.710968 0.703225 0 0.345727 0.938335 0 0.227921 0.97368 0 0.560309 0.828284 0 0.864323 0.502938 0 0.420946 0.907086 0 0.827148 0.561985 0 0.571015 0.82094 0 0.817327 0.576174 0 0.602265 0.798296 0 0.949954 0.312391 0 0.345161 0.938543 0 0.882606 0.470113 0 0.467556 0.883963 0 0.405513 0.914089 0 0.912562 0.408939 0 0.795038 0.60656 0 0.674333 0.738428 0 0.549814 0.835287 0 0.836231 0.548378 0 0.696088 0.717957 0 0.515935 0.856628 0 0.857753 0.514061 0 0.510868 0.859659 0 0.951185 0.308622 0 0.57285 0.81966 0 0.836356 0.548187 0 0.836978 0.547237 0 0.574551 0.818469 0 0.862273 0.506444 0 0.779609 0.626267 0 0.701235 0.71293 0 0.909727 0.415208 0 0.427265 0.904126 0 0.456133 0.889911 0 0.890113 0.45574 0 0.948213 0.317635 0 0.550469 0.834855 0 0.841282 0.540597 0 0.558483 0.829516 0 0.831915 0.554903 0 1 0.000979335 0 0.948622 0.316411 0 0.314348 0.949308 0 0.0449497 0.998989 0 0.19892 0.980016 0 0.460661 0.887576 0 0.88954 0.456857 0 0.346794 0.937941 0 0.688851 0.724903 0 0.761522 0.648139 0 0.962436 0.271507 0 0.950119 0.311889 0 0.305069 0.95233 0 0.289026 0.957321 0 0.543103 0.839666 0 0.844478 0.53559 0 0.900491 0.434874 0 0.445491 0.895286 0 0.0990818 0.995079 0 0.544329 0.838872 0 0.852209 0.523201 0 0.891509 0.453003 0 0.661561 0.749891 0 0.775638 0.631178 0 0.100451 0.994942 0 0.994659 0.10322 0 0.497759 0.867315 0 0.867692 0.497102 0 0.958582 0.284816 0 0.920315 0.391178 0 0.344138 0.938919 0 0.872147 0.489245 0 0.488851 0.872367 0 0.493952 0.869489 0 0.910185 0.414202 0 0.997962 0.0638047 0 0.882198 0.470879 0 0.452001 0.892017 0 0.424287 0.905528 0 0.790905 0.611939 0 0.615094 0.788454 0 0.591151 0.806561 0 0.809801 0.586704 0 0.712002 0.702177 0 0.806952 0.590618 0 0.16627 0.98608 0 0.977256 0.212065 0 0.537038 0.843558 0 0.897938 0.440122 0 0.443869 0.896092 0 0.878015 0.478633 0 0.499814 0.866133 0 0.80589 0.592065 0 0.654817 0.755787 0 0.89337 0.449321 0 0.821616 0.570041 0 0.615395 0.788219 0 0.819345 0.5733 0 0.633306 0.773901 0 0.579994 0.814621 0 0.817555 0.57585 0 0.625394 0.780309 0 0.781411 0.624016 0 0.266989 0.9637 0 0.962255 0.272149 0 0.834364 0.551213 0 0.37185 0.928293 0 0.846864 0.531809 0 0.568079 0.822974 0 0.906804 0.421553 0 0.414858 0.909886 0 0.52578 0.850621 0 0.858176 0.513355 0 0.77613 0.630572 0 0.707001 0.707213 0 0.870569 0.492047 0 0.491799 0.870709 0 0.125649 0.992075 0 0.99136 0.131171 0 
VECTORS VY float
-0.894768 0.446531 0 6.12323e-17 1 0 6.12323e-17 1 0 -0.446531 0.894768 0 -0.979334 0.202249 0 -0.914531 0.404517 0 -0.822625 0.568585 0 -0.707073 0.707141 0 -0.566222 0.824253 0 -0.398554 0.917145 0 -0.206693 0.978406 0 6.12323e-17 1 0 -0.978406 0.206693 0 -0.917145 0.398554 0 -0.824253 0.566222 0 -0.707141 0.707073 0 -0.568585 0.822625 0 -0.404517 0.914531 0 -0.202249 0.979334 0 -0.202249 0.979334 0 -0.404517 0.914531 0 -0.568585 0.822625 0 -0.707141 0.707073 0 -0.824253 0.566222 0 -0.917145 0.398554 0 -0.978406 0.206693 0 -1 3.67518e-15 0 -0.206693 0.978406 0 -0.398554 0.917145 0 -0.566222 0.824253 0 -0.707073 0.707141 0 -0.822625 0.568585 0 -0.914531 0.404517 0 -0.979334 0.202249 0 -0.979334 0.202249 0 -0.914531 0.404517 0 -0.822625 0.568585 0 -0.707073 0.707141 0 -0.566222 0.824253 0 -0.398554 0.917145 0 -0.206693 0.978406 0 6.12323e-17 1 0 -0.978406 0.206693 0 -0.917145 0.398554 0 -0.824253 0.566222 0 -0.707141 0.707073 0 -0.568585 0.822625 0 -0.404517 0.914531 0 -0.202249 0.979334 0 -0.715332 0.698784 0 -0.653278 0.757118 0 -0.57477 0.818315 0 -0.469048 0.883173 0 -0.321089 0.947049 0 -0.117308 0.993096 0 -0.993096 0.117308 0 -0.947049 0.321089 0 -0.883173 0.469048 0 -0.818315 0.57477 0 -0.757118 0.653278 0 -0.698784 0.715332 0 -0.57121 0.820804 0 -0.806954 0.590614 0 -0.552443 0.833551 0 -0.45037 0.892842 0 -0.897858 0.440286 0 -0.583092 0.812406 0 -0.774959 0.632011 0 -0.838603 0.544743 0 -0.539228 0.84216 0 -0.147528 0.989058 0 -0.0424966 0.999097 0 -0.0246465 0.999696 0 -0.463389 0.886155 0 -0.888564 0.458752 0 -0.0142915 0.999898 0 -0.507207 0.861824 0 -0.861728 0.507371 0 -0.985313 0.170755 0 -0.669179 0.743102 0 -0.670101 0.74227 0 -0.862708 0.505703 0 -0.501561 0.865123 0 -0.526013 0.850477 0 -0.848645 0.528962 0 -0.448536 0.893765 0 -0.88397 0.467544 0 -0.368884 0.929476 0 -0.9121 0.409968 0 -0.427918 0.903818 0 -0.866732 0.498774 0 -0.496267 0.86817 0 -0.928124 0.372271 0 -0.380158 0.924922 0 -0.770849 0.637018 0 -0.609738 0.792603 0 -0.936699 0.350137 0 -0.677832 0.735217 0 -0.65294 0.75741 0 -0.49015 0.871638 0 -0.860909 0.508759 0 -0.689929 0.723877 0 -0.70964 0.704564 0 -0.847257 0.531183 0 -0.517052 0.855954 0 -0.0177331 0.999843 0 -0.479739 0.877411 0 -0.880488 0.474068 0 -0.801455 0.598055 0 -0.595044 0.803693 0 -0.928385 0.37162 0 -0.380668 0.924712 0 -0.00872765 0.999962 0 -0.715379 0.698736 0 -0.607338 0.794443 0 -0.465512 0.885042 0 -0.509554 0.860438 0 -0.859395 0.511312 0 -0.984674 0.174404 0 -0.184125 0.982903 0 -0.176253 0.984345 0 -0.985568 0.169279 0 -0.727561 0.686043 0 -0.622624 0.782522 0 -0.998129 0.061146 0 -0.0726382 0.997358 0 -0.76775 0.64075 0 -0.579733 0.814807 0 -0.500451 0.865765 0 -0.86235 0.506312 0 -0.362058 0.932156 0 -0.471269 0.881989 0 -0.882513 0.470288 0 -0.191495 0.981494 0 -0.822089 0.569359 0 -0.567082 0.823662 0 -0.888742 0.458407 0 -0.482893 0.875679 0 -0.876482 0.481435 0 -0.444835 0.895613 0 -0.701326 0.712841 0 -0.703225 0.710968 0 -0.938335 0.345727 0 -0.97368 0.227921 0 -0.828284 0.560309 0 -0.502938 0.864323 0 -0.907086 0.420946 0 -0.561985 0.827148 0 -0.82094 0.571015 0 -0.576174 0.817327 0 -0.798296 0.602265 0 -0.312391 0.949954 0 -0.938543 0.345161 0 -0.470113 0.882606 0 -0.883963 0.467556 0 -0.914089 0.405513 0 -0.408939 0.912562 0 -0.60656 0.795038 0 -0.738428 0.674333 0 -0.835287 0.549814 0 -0.548378 0.836231 0 -0.717957 0.696088 0 -0.856628 0.515935 0 -0.514061 0.857753 0 -0.859659 0.510868 0 -0.308622 0.951185 0 -0.81966 0.57285 0 -0.548187 0.836356 0 -0.547237 0.836978 0 -0.818469 0.574551 0 -0.506444 0.862273 0 -0.626267 0.779609 0 -0.71293 0.701235 0 -0.415208 0.909727 0 -0.904126 0.427265 0 -0.889911 0.456133 0 -0.45574 0.890113 0 -0.317635 0.948213 0 -0.834855 0.550469 0 -0.540597 0.841282 0 -0.829516 0.558483 0 -0.554903 0.831915 0 -0.000979335 1 0 -0.316411 0.948622 0 -0.949308 0.314348 0 -0.998989 0.0449497 0 -0.980016 0.19892 0 -0.887576 0.460661 0 -0.456857 0.88954 0 -0.937941 0.346794 0 -0.724903 0.688851 0 -0.648139 0.761522 0 -0.271507 0.962436 0 -0.311889 0.950119 0 -0.95233 0.305069 0 -0.957321 0.289026 0 -0.839666 0.543103 0 -0.53559 0.844478 0 -0.434874 0.900491 0 -0.895286 0.445491 0 -0.995079 0.0990818 0 -0.838872 0.544329 0 -0.523201 0.852209 0 -0.453003 0.891509 0 -0.749891 0.661561 0 -0.631178 0.775638 0 -0.994942 0.100451 0 -0.10322 0.994659 0 -0.867315 0.497759 0 -0.497102 0.867692 0 -0.284816 0.958582 0 -0.391178 0.920315 0 -0.938919 0.344138 0 -0.489245 0.872147 0 -0.872367 0.488851 0 -0.869489 0.493952 0 -0.414202 0.910185 0 -0.0638047 0.997962 0 -0.470879 0.882198 0 -0.892017 0.452001 0 -0.905528 0.424287 0 -0.611939 0.790905 0 -0.788454 0.615094 0 -0.806561 0.591151 0 -0.586704 0.809801 0 -0.702177 0.712002 0 -0.590618 0.806952 0 -0.98608 0.16627 0 -0.212065 0.977256 0 -0.843558 0.537038 0 -0.440122 0.897938 0 -0.896092 0.443869 0 -0.478633 0.878015 0 -0.866133 0.499814 0 -0.592065 0.80589 0 -0.755787 0.654817 0 -0.449321 0.89337 0 -0.570041 0.821616 0 -0.788219 0.615395 0 -0.5733 0.819345 0 -0.773901 0.633306 0 -0.814621 0.579994 0 -0.57585 0.817555 0 -0.780309 0.625394 0 -0.624016 0.781411 0 -0.9637 0.266989 0 -0.272149 0.962255 0 -0.551213 0.834364 0 -0.928293 0.37185 0 -0.531809 0.846864 0 -0.822974 0.568079 0 -0.421553 0.906804 0 -0.909886 0.414858 0 -0.850621 0.52578 0 -0.513355 0.858176 0 -0.630572 0.77613 0 -0.707213 0.707001 0 -0.492047 0.870569 0 -0.870709 0.491799 0 -0.992075 0.125649 0 -0.131171 0.99136 0 
VECTORS VXM float