# vtk DataFile Version 3.0
Generated by GMDS VTK Writer

ASCII
DATASET UNSTRUCTURED_GRID
POINTS 287 float
2.8 0 -0
3.2 0.2 -0
3.1 0.15 0
3 0.1 0
2.9 0.05 0
0.7 1.3 -0
2.7945 0.103252 0
2.80091 0.206545 0
2.80994 0.30966 0
2.81264 0.413088 0
2.79957 0.515598 0
2.76314 0.612177 0
2.70333 0.69635 0
2.62846 0.76772 0
2.54697 0.831516 0
2.4618 0.890315 0
2.37417 0.945404 0
2.28472 0.997499 0
2.19383 1.04702 0
2.10169 1.09418 0
2.00843 1.13909 0
1.9141 1.1817 0
1.81868 1.22183 0
1.7221 1.25906 0
1.62417 1.29256 0
1.5243 1.31964 0
1.42226 1.33674 0
1.31903 1.34401 0
1.21555 1.34276 0
1.11233 1.33522 0
1.00941 1.32416 0
0.906544 1.3126 0
0.803432 1.30358 0
1 2.1 -0
3.2 1.6 -0
1.10202 2.06691 0
1.20291 2.03051 0
1.30315 1.99232 0
1.4032 1.95366 0
1.50355 1.91578 0
1.60468 1.88005 0
1.70705 1.84807 0
1.81107 1.82197 0
1.91689 1.8047 0
2.02396 1.8007 0
2.1295 1.8187 0
2.2305 1.85455 0
2.32714 1.90102 0
2.42096 1.953 0
2.51402 2.00634 0
2.60891 2.05629 0
2.70913 2.09405 0
2.81523 2.09689 0
2.9096 2.04793 0
2.9812 1.96845 0
3.03788 1.87745 0
3.08853 1.78291 0
3.14013 1.68889 0
0.7375 1.4 0
0.775 1.5 0
0.8125 1.6 0
0.85 1.7 0
0.8875 1.8 0
0.925 1.9 0
0.9625 2 0
2.8 1.5 0
3.1 1.575 0
3 1.55 0
2.9 1.525 0
3.1 1.1 0
2.875 1.4 0
2.95 1.3 0
3.025 1.2 0
3.4 1.2 -0
3.25 1.15 0
3.3977 1.08755 0
3.37082 0.978809 0
3.30669 0.887221 0
3.22274 0.812356 0
3.14372 0.732507 0
3.0957 0.631966 0
3.09529 0.519963 0
3.12052 0.410438 0
3.17677 0.258076 0
2.29785 1.22737 0
1.20292 1.51741 0
2.36983 1.73886 0
2.72548 1.2843 0
1.88748 1.38499 0
1.66391 1.6927 0
2.79918 0.823092 0
2.60686 1.45191 0
2.15886 1.6407 0
2.89228 1.82495 0
2.63917 0.95853 0
1.25333 1.83875 0
1.42908 1.52619 0
2.68726 1.63701 0
2.33063 1.56887 0
2.21807 1.43944 0
1.89399 1.61441 0
2.52685 1.26464 0
0.988136 1.51358 0
2.83494 1.06375 0
1.45589 1.73814 0
1.66737 1.48659 0
1.08587 1.72248 0
2.58859 1.81277 0
2.99388 0.852345 0
2.41114 1.42644 0
2.98196 0.302722 0
2.07572 1.30133 0
2.94913 0.510603 0
2.47603 1.07714 0
2.04578 1.47379 0
2.77612 1.92419 0
1.28408 1.66783 0
1.09305 1.91918 0
2.49625 1.60472 0
2.63877 1.12968 0
2.92107 0.68725 0
2.86963 1.6793 0
3.2754 1.02062 0
1.55557 1.61134 0
2.76427 1.77612 0
2.8994 1.18655 0
2.7819 1.18737 0
2.83319 1.29046 0
1.88377 1.4917 0
1.78621 1.43353 0
1.77941 1.54674 0
2.71815 1.10472 0
2.67969 1.19534 0
1.67802 1.59839 0
1.76731 1.65575 0
3.15638 0.95249 0
3.22354 1.04327 0
3.25043 0.95284 0
3.10107 0.843424 0
3.04152 0.963935 0
2.97114 1.07855 0
1.54584 1.49617 0
1.59022 1.39642 0
1.48064 1.41746 0
3.31856 1.00189 0
2.02913 1.62932 0
1.96594 1.71709 0
2.08356 1.72691 0
2.08822 1.54477 0
1.98528 1.53199 0
3.03847 1.65598 0
2.93549 1.62008 0
2.96515 1.71795 0
1.51349 1.58167 0
1.59285 1.56906 0
2.59223 1.62244 0
2.53689 1.70112 0
2.6375 1.71366 0
2.47126 1.77659 0
2.43736 1.67515 0
1.14438 1.61008 0
1.20124 1.68847 0
1.24785 1.60144 0
2.27105 1.69609 0
2.19518 1.75578 0
2.2984 1.7981 0
2.88904 1.76058 0
2.96807 1.8081 0
2.93298 1.88376 0
2.84422 1.87104 0
2.87314 1.95184 0
3.04751 0.747287 0
0.921168 1.60722 0
0.880799 1.50689 0
1.27019 1.745 0
1.17702 1.78537 0
0.946324 1.41425 0
0.841605 1.40622 0
1.84913 1.72797 0
1.73908 1.75512 0
2.5092 1.4372 0
2.456 1.51447 0
2.55098 1.5295 0
2.99497 0.666319 0
2.95339 0.75794 0
3.06084 0.347308 0
2.96618 0.407266 0
3.03478 0.460501 0
1.37063 1.42883 0
2.40489 1.58529 0
2.36575 1.50521 0
2.17685 1.26523 0
2.15099 1.3669 0
2.25281 1.34297 0
2.99331 0.201244 0
3.08539 0.243522 0
1.63569 1.7853 0
1.5672 1.72106 0
1.53252 1.81514 0
1.03297 1.61333 0
1.09607 1.51732 0
2.63335 0.86198 0
2.72197 0.895378 0
2.71159 0.794466 0
2.34566 1.64396 0
2.26176 1.59901 0
2.89738 0.152882 0
2.88027 0.461074 0
2.8911 0.358367 0
2.314 1.42601 0
2.36035 1.33548 0
2.79631 2.01652 0
2.56615 1.35747 0
2.46531 1.34428 0
2.9255 0.956109 0
2.42261 1.24767 0
1.69859 1.36564 0
1.80196 1.32465 0
2.49505 1.17161 0
2.39325 1.1446 0
1.97307 1.43676 0
2.05843 1.39617 0
1.98138 1.34036 0
1.05146 1.42201 0
2.66583 1.37112 0
2.62511 1.27703 0
2.6472 1.54641 0
2.74238 1.56659 0
2.70474 1.47036 0
2.27907 1.51145 0
2.18788 1.53241 0
1.42869 1.85157 0
0.994772 1.81339 0
0.962118 1.70934 0
2.39761 1.84264 0
2.49831 1.88817 0
1.59625 1.64114 0
1.52067 1.65455 0
1.32821 1.8938 0
1.23204 1.93448 0
1.34887 1.79381 0
2.19201 1.15595 0
2.29028 1.1024 0
1.26247 1.42982 0
1.30976 1.51845 0
1.89971 1.28238 0
1.15678 1.42744 0
2.76728 1.386 0
2.12481 1.45889 0
1.08873 1.83826 0
1.16398 1.88093 0
1.01934 1.91086 0
2.59821 1.93815 0
3.01727 0.566217 0
2.55086 0.923541 0
2.72912 1.00103 0
2.81749 0.931039 0
2.09166 1.19932 0
1.99514 1.24067 0
2.78326 0.721882 0
2.38056 1.04168 0
2.89571 0.255548 0
2.46658 0.982451 0
2.55676 1.01664 0
2.56587 1.10612 0
2.64143 1.05268 0
2.77891 1.65382 0
2.83774 1.59084 0
1.14103 1.97116 0
1.05291 1.99474 0
1.43671 1.63408 0
2.72783 1.71732 0
2.80928 1.73137 0
2.893 0.845323 0
2.86333 0.560435 0
2.86746 0.748764 0
2.85514 0.656321 0
1.34421 1.6074 0
1.35686 1.69735 0
2.58827 1.19055 0
2.93356 0.607682 0
2.82704 1.80081 0
2.76457 1.84059 0
2.6953 1.98479 0
2.68583 1.88168 0
3.31069 1.08407 0
2.69395 1.7904 0

CELLS 488 1952
3 71 125 127 
3 125 126 127 
3 125 103 126 
3 127 126 87 
3 100 128 130 
3 128 129 130 
3 128 88 129 
3 130 129 105 
3 87 126 132 
3 126 131 132 
3 126 103 131 
3 132 131 119 
3 100 130 134 
3 130 133 134 
3 130 105 133 
3 134 133 89 
3 78 135 137 
3 135 136 137 
3 135 69 136 
3 137 136 122 
3 78 138 135 
3 138 139 135 
3 138 108 139 
3 135 139 69 
3 71 72 125 
3 72 140 125 
3 72 69 140 
3 125 140 103 
3 96 141 143 
3 141 142 143 
3 141 105 142 
3 143 142 25 
3 78 137 77 
3 137 144 77 
3 137 122 144 
3 77 144 76 
3 92 145 147 
3 145 146 147 
3 145 100 146 
3 147 146 44 
3 92 148 145 
3 148 149 145 
3 148 114 149 
3 145 149 100 
3 56 150 152 
3 150 151 152 
3 150 67 151 
3 152 151 121 
3 96 153 141 
3 153 154 141 
3 153 123 154 
3 141 154 105 
3 97 155 157 
3 155 156 157 
3 155 118 156 
3 157 156 107 
3 86 158 159 
3 158 156 159 
3 158 107 156 
3 159 156 118 
3 85 160 162 
3 160 161 162 
3 160 106 161 
3 162 161 116 
3 86 163 165 
3 163 164 165 
3 163 92 164 
3 165 164 46 
3 56 152 167 
3 152 166 167 
3 152 121 166 
3 167 166 93 
3 67 150 66 
3 150 57 66 
3 150 56 57 
3 66 57 34 
3 54 168 170 
3 168 169 170 
3 168 93 169 
3 170 169 115 
3 78 79 138 
3 79 171 138 
3 79 80 171 
3 138 171 108 
3 59 60 173 
3 60 172 173 
3 60 61 172 
3 173 172 102 
3 95 174 175 
3 174 161 175 
3 174 116 161 
3 175 161 106 
3 59 173 177 
3 173 176 177 
3 173 102 176 
3 177 176 31 
3 42 178 179 
3 178 134 179 
3 178 100 134 
3 179 134 89 
3 91 180 182 
3 180 181 182 
3 180 109 181 
3 182 181 118 
3 80 183 171 
3 183 184 171 
3 183 120 184 
3 171 184 108 
3 82 185 187 
3 185 186 187 
3 185 110 186 
3 187 186 112 
3 27 188 26 
3 188 143 26 
3 188 96 143 
3 26 143 25 
3 98 189 190 
3 189 181 190 
3 189 118 181 
3 190 181 109 
3 84 191 193 
3 191 192 193 
3 191 111 192 
3 193 192 99 
3 3 194 2 
3 194 195 2 
3 194 110 195 
3 2 195 1 
3 40 196 198 
3 196 197 198 
3 196 89 197 
3 198 197 104 
3 5 58 32 
3 58 177 32 
3 58 59 177 
3 32 177 31 
3 102 199 200 
3 199 160 200 
3 199 106 160 
3 200 160 85 
3 82 83 185 
3 83 195 185 
3 83 1 195 
3 185 195 110 
3 13 201 203 
3 201 202 203 
3 201 94 202 
3 203 202 90 
3 92 163 205 
3 163 204 205 
3 163 86 204 
3 205 204 98 
3 0 6 4 
3 6 206 4 
3 6 7 206 
3 4 206 3 
3 9 207 208 
3 207 186 208 
3 207 112 186 
3 208 186 110 
3 84 193 210 
3 193 209 210 
3 193 99 209 
3 210 209 109 
3 52 53 211 
3 53 170 211 
3 53 54 170 
3 211 170 115 
3 91 212 180 
3 212 213 180 
3 212 101 213 
3 180 213 109 
3 69 139 140 
3 139 214 140 
3 139 108 214 
3 140 214 103 
3 84 210 215 
3 210 213 215 
3 210 109 213 
3 215 213 101 
3 23 216 217 
3 216 129 217 
3 216 105 129 
3 217 129 88 
3 84 215 219 
3 215 218 219 
3 215 101 218 
3 219 218 113 
3 88 220 222 
3 220 221 222 
3 220 114 221 
3 222 221 111 
3 31 176 30 
3 176 223 30 
3 176 102 223 
3 30 223 29 
3 91 224 212 
3 224 225 212 
3 224 87 225 
3 212 225 101 
3 91 226 228 
3 226 227 228 
3 226 97 227 
3 228 227 65 
3 92 205 230 
3 205 229 230 
3 205 98 229 
3 230 229 99 
3 40 198 39 
3 198 231 39 
3 198 104 231 
3 39 231 38 
3 61 62 233 
3 62 232 233 
3 62 63 232 
3 233 232 106 
3 54 55 168 
3 55 167 168 
3 55 56 167 
3 168 167 93 
3 86 234 158 
3 234 235 158 
3 234 48 235 
3 158 235 107 
3 89 236 197 
3 236 237 197 
3 236 123 237 
3 197 237 104 
3 46 47 165 
3 47 234 165 
3 47 48 234 
3 165 234 86 
3 44 45 147 
3 45 164 147 
3 45 46 164 
3 147 164 92 
3 40 41 196 
3 41 179 196 
3 41 42 179 
3 196 179 89 
3 42 43 178 
3 43 146 178 
3 43 44 146 
3 178 146 100 
3 38 238 37 
3 238 239 37 
3 238 95 239 
3 37 239 36 
3 38 231 238 
3 231 240 238 
3 231 104 240 
3 238 240 95 
3 17 18 242 
3 18 241 242 
3 18 19 241 
3 242 241 84 
3 102 172 199 
3 172 233 199 
3 172 61 233 
3 199 233 106 
3 27 243 188 
3 243 244 188 
3 243 85 244 
3 188 244 96 
3 23 217 22 
3 217 245 22 
3 217 88 245 
3 22 245 21 
3 27 28 243 
3 28 246 243 
3 28 29 246 
3 243 246 85 
3 23 24 216 
3 24 142 216 
3 24 25 142 
3 216 142 105 
3 65 247 228 
3 247 224 228 
3 247 87 224 
3 228 224 91 
3 85 246 200 
3 246 223 200 
3 246 29 223 
3 200 223 102 
3 100 149 128 
3 149 220 128 
3 149 114 220 
3 128 220 88 
3 71 127 70 
3 127 247 70 
3 127 87 247 
3 70 247 65 
3 92 230 148 
3 230 248 148 
3 230 99 248 
3 148 248 114 
3 95 175 250 
3 175 249 250 
3 175 106 249 
3 250 249 117 
3 63 251 232 
3 251 249 232 
3 251 117 249 
3 232 249 106 
3 48 49 235 
3 49 252 235 
3 49 50 252 
3 235 252 107 
3 80 81 253 
3 81 187 253 
3 81 82 187 
3 253 187 112 
3 15 254 14 
3 254 201 14 
3 254 94 201 
3 14 201 13 
3 90 202 256 
3 202 255 256 
3 202 94 255 
3 256 255 103 
3 84 241 191 
3 241 257 191 
3 241 19 257 
3 191 257 111 
3 21 245 258 
3 245 222 258 
3 245 88 222 
3 258 222 111 
3 13 203 12 
3 203 259 12 
3 203 90 259 
3 12 259 11 
3 98 190 229 
3 190 209 229 
3 190 109 209 
3 229 209 99 
3 99 192 248 
3 192 221 248 
3 192 111 221 
3 248 221 114 
3 84 219 242 
3 219 260 242 
3 219 113 260 
3 242 260 17 
3 3 206 194 
3 206 261 194 
3 206 7 261 
3 194 261 110 
3 15 262 254 
3 262 263 254 
3 262 113 263 
3 254 263 94 
3 113 264 263 
3 264 265 263 
3 264 119 265 
3 263 265 94 
3 65 227 267 
3 227 266 267 
3 227 97 266 
3 267 266 121 
3 36 268 35 
3 268 269 35 
3 268 117 269 
3 35 269 33 
3 33 269 64 
3 269 251 64 
3 269 117 251 
3 64 251 63 
3 96 270 153 
3 270 237 153 
3 270 104 237 
3 153 237 123 
3 121 266 272 
3 266 271 272 
3 266 97 271 
3 272 271 124 
3 9 208 8 
3 208 261 8 
3 208 110 261 
3 8 261 7 
3 103 255 131 
3 255 265 131 
3 255 94 265 
3 131 265 119 
3 103 214 256 
3 214 273 256 
3 214 108 273 
3 256 273 90 
3 21 258 20 
3 258 257 20 
3 258 111 257 
3 20 257 19 
3 9 10 207 
3 10 274 207 
3 10 11 274 
3 207 274 112 
3 11 259 276 
3 259 275 276 
3 259 90 275 
3 276 275 120 
3 96 277 270 
3 277 278 270 
3 277 116 278 
3 270 278 104 
3 15 16 262 
3 16 260 262 
3 16 17 260 
3 262 260 113 
3 96 244 277 
3 244 162 277 
3 244 85 162 
3 277 162 116 
3 113 218 264 
3 218 279 264 
3 218 101 279 
3 264 279 119 
3 112 274 280 
3 274 276 280 
3 274 11 276 
3 280 276 120 
3 93 281 169 
3 281 282 169 
3 281 124 282 
3 169 282 115 
3 87 132 225 
3 132 279 225 
3 132 119 279 
3 225 279 101 
3 50 51 283 
3 51 211 283 
3 51 52 211 
3 283 211 115 
3 36 239 268 
3 239 250 268 
3 239 95 250 
3 268 250 117 
3 95 240 174 
3 240 278 174 
3 240 104 278 
3 174 278 116 
3 50 283 252 
3 283 284 252 
3 283 115 284 
3 252 284 107 
3 89 133 236 
3 133 154 236 
3 133 105 154 
3 236 154 123 
3 90 273 275 
3 273 184 275 
3 273 108 184 
3 275 184 120 
3 65 267 68 
3 267 151 68 
3 267 121 151 
3 68 151 67 
3 91 182 226 
3 182 155 226 
3 182 118 155 
3 226 155 97 
3 121 272 166 
3 272 281 166 
3 272 124 281 
3 166 281 93 
3 73 75 285 
3 75 144 285 
3 75 76 144 
3 285 144 122 
3 97 157 271 
3 157 286 271 
3 157 107 286 
3 271 286 124 
3 86 159 204 
3 159 189 204 
3 159 118 189 
3 204 189 98 
3 112 280 253 
3 280 183 253 
3 280 120 183 
3 253 183 80 
3 115 282 284 
3 282 286 284 
3 282 124 286 
3 284 286 107 
3 73 285 74 
3 285 136 74 
3 285 122 136 
3 74 136 69 

CELL_TYPES 488
5 
5 
5 
5 
5 
5 
5 
5 
5 
5 
5 
5 
5 
5 
5 
5 
5 
5 
5 
5 
5 
5 
5 
5 
5 
5 
5 
5 
5 
5 
5 
5 
5 
5 
5 
5 
5 
5 
5 
5 
5 
5 
5 
5 
5 
5 
5 
5 
5 
5 
5 
5 
5 
5 
5 
5 
5 
5 
5 
5 
5 
5 
5 
5 
5 
5 
5 
5 
5 
5 
5 
5 
5 
5 
5 
5 
5 
5 
5 
5 
5 
5 
5 
5 
5 
5 
5 
5 
5 
5 
5 
5 
5 
5 
5 
5 
5 
5 
5 
5 
5 
5 
5 
5 
5 
5 
5 
5 
5 
5 
5 
5 
5 
5 
5 
5 
5 
5 
5 
5 
5 
5 
5 
5 
5 
5 
5 
5 
5 
5 
5 
5 
5 
5 
5 
5 
5 
5 
5 
5 
5 
5 
5 
5 
5 
5 
5 
5 
5 
5 
5 
5 
5 
5 
5 
5 
5 
5 
5 
5 
5 
5 
5 
5 
5 
5 
5 
5 
5 
5 
5 
5 
5 
5 
5 
5 
5 
5 
5 
5 
5 
5 
5 
5 
5 
5 
5 
5 
5 
5 
5 
5 
5 
5 
5 
5 
5 
5 
5 
5 
5 
5 
5 
5 
5 
5 
5 
5 
5 
5 
5 
5 
5 
5 
5 
5 
5 
5 
5 
5 
5 
5 
5 
5 
5 
5 
5 
5 
5 
5 
5 
5 
5 
5 
5 
5 
5 
5 
5 
5 
5 
5 
5 
5 
5 
5 
5 
5 
5 
5 
5 
5 
5 
5 
5 
5 
5 
5 
5 
5 
5 
5 
5 
5 
5 
5 
5 
5 
5 
5 
5 
5 
5 
5 
5 
5 
5 
5 
5 
5 
5 
5 
5 
5 
5 
5 
5 
5 
5 
5 
5 
5 
5 
5 
5 
5 
5 
5 
5 
5 
5 
5 
5 
5 
5 
5 
5 
5 
5 
5 
5 
5 
5 
5 
5 
5 
5 
5 
5 
5 
5 
5 
5 
5 
5 
5 
5 
5 
5 
5 
5 
5 
5 
5 
5 
5 
5 
5 
5 
5 
5 
5 
5 
5 
5 
5 
5 
5 
5 
5 
5 
5 
5 
5 
5 
5 
5 
5 
5 
5 
5 
5 
5 
5 
5 
5 
5 
5 
5 
5 
5 
5 
5 
5 
5 
5 
5 
5 
5 
5 
5 
5 
5 
5 
5 
5 
5 
5 
5 
5 
5 
5 
5 
5 
5 
5 
5 
5 
5 
5 
5 
5 
5 
5 
5 
5 
5 
5 
5 
5 
5 
5 
5 
5 
5 
5 
5 
5 
5 
5 
5 
5 
5 
5 
5 
5 
5 
5 
5 
5 
5 
5 
5 
5 
5 
5 
5 
5 
5 
5 
5 
5 
5 
5 
5 
5 
5 
5 
5 
5 
5 
5 
5 
5 
5 
5 
5 
5 
5 
5 
5 
5 
5 
5 
5 
5 
5 
5 
5 
5 
5 
5 
5 
5 
5 
5 
5 
5 
5 
5 
5 
5 
5 
5 
5 
5 
5 
5 
POINT_DATA 287
SCALARS GMDS_ID int 1
LOOKUP_TABLE default
0 1 2 3 4 5 6 7 8 9 10 11 12 13 14 15 16 17 18 19 20 21 22 23 24 25 26 27 28 29 30 31 32 33 34 35 36 37 38 39 40 41 42 43 44 45 46 47 48 49 50 51 52 53 54 55 56 57 58 59 60 61 62 63 64 65 66 67 68 69 70 71 72 73 74 75 76 77 78 79 80 81 82 83 84 85 86 87 88 89 90 91 92 93 94 95 96 97 98 99 100 101 102 103 104 105 106 107 108 109 110 111 112 113 114 115 116 117 118 119 120 121 122 123 124 125 126 127 128 129 130 131 132 133 134 135 136 137 138 139 140 141 142 143 144 145 146 147 148 149 150 151 152 153 154 155 156 157 158 159 160 161 162 163 164 165 166 167 168 169 170 171 172 173 174 175 176 177 178 179 180 181 182 183 184 185 186 187 188 189 190 191 192 193 194 195 196 197 198 199 200 201 202 203 204 205 206 207 208 209 210 211 212 213 214 215 216 217 218 219 220 221 222 223 224 225 226 227 228 229 230 231 232 233 234 235 236 237 238 239 240 241 242 243 244 245 246 247 248 249 250 251 252 253 254 255 256 257 258 259 260 261 262 263 264 265 266 267 268 269 270 271 272 273 274 275 276 277 278 279 280 281 282 283 284 285 286 
SCALARS angle float 1
LOOKUP_TABLE default
0 0 1.85459 1.85459 1.85459 0 6.26575 5.98457 6.05614 0.201538 0.97513 1.95684 2.85419 3.43186 3.74633 3.95234 4.10593 4.23077 4.33931 4.4394 4.5371 4.6384 4.75106 4.88816 5.09436 5.42146 5.81061 6.16673 0.169917 0.359968 0.438009 0.39828 0.243658 0 0 4.96336 4.86254 4.81769 4.82397 4.88204 4.99824 5.18591 5.46805 5.88493 0.263112 1.02008 1.57866 1.90826 2.05273 2.01008 1.68967 0.774159 5.37964 3.65096 2.5806 2.09783 1.98762 2.18934 4.8481 4.8481 4.8481 4.8481 4.8481 4.8481 4.8481 0 0.979915 0.979915 0.979915 0 2.574 2.574 2.574 0 1.287 5.75752 4.57682 3.37644 3.03775 3.83165 5.38467 0.445542 1.16016 1.46831 4.3898 5.86703 1.60493 2.34288 5.06213 5.35875 2.9662 0.601577 0.723671 1.8928 3.68873 5.04818 5.57824 0.935829 1.08059 5.16643 5.68512 4.08607 5.72257 3.06217 5.22806 5.34315 5.1647 1.59375 5.61109 5.8188 0.521428 4.6991 0.533305 4.07075 5.36524 1.75793 5.38305 4.92233 1.22155 3.70267 0.954063 1.33765 5.59913 5.38706 1.49893 2.50553 2.78473 2.46602 5.35596 5.22561 5.39923 3.44173 3.32624 5.39032 5.47735 6.21497 0.702545 3.74988 4.62616 6.19783 0.106098 5.44843 5.34597 5.58856 4.7125 6.16841 6.131 0.710916 5.91283 5.59274 1.89034 1.20821 1.72642 5.42992 5.39659 1.07636 1.425 1.30764 1.67419 1.46358 5.51275 5.31979 5.56207 1.29915 1.2035 1.66044 1.68508 1.96017 2.1148 2.01428 2.81597 5.44191 5.15797 5.40187 5.21455 5.11298 0.0102148 0.114773 5.73405 5.38278 0.660714 0.998807 0.88792 5.67154 6.01629 0.761516 0.499626 0.640404 5.88527 1.23423 0.822208 4.56506 4.81907 4.6507 1.24194 1.47872 5.25527 5.27851 5.09162 5.37543 5.85514 3.58399 3.45187 3.05455 1.34092 0.980372 0.0209301 0.71253 0.088383 5.08237 4.5147 5.85822 0.431897 4.48784 6.07612 4.26114 5.19022 4.96351 4.08144 4.19874 5.19274 4.99684 4.87394 0.0103144 0.912197 3.31508 0.660518 0.47055 0.328967 0.316441 6.25819 5.00727 4.95718 5.02914 1.84844 1.81161 5.36345 5.3517 4.94634 4.93899 5.12256 4.44043 4.2646 6.14034 5.76251 4.78973 0.00419289 1.49869 5.30322 4.9921 4.98079 4.88874 1.67892 5.96155 3.85972 3.54578 3.38481 4.53306 4.64185 2.18089 4.15535 6.25877 4.05212 3.90277 3.91646 3.7315 1.07059 1.02337 4.90037 4.87906 5.40495 1.27836 1.4189 3.0169 1.4193 2.07999 1.81521 5.50564 5.31139 3.84202 0.552993 1.69226 1.65401 1.59642 1.61758 0.998838 1.4865 
VECTORS cross_X float
1 0 0 1 0 0 0.894427 0.447214 0 0.894427 0.447214 0 0.894427 0.447214 0 1 0 0 0.00435793 0.999991 0 0.0745844 0.997215 0 0.056731 0.998389 0 0.998731 0.0503633 0 0.970432 0.241375 0 0.882704 0.469929 0 0.756044 0.65452 0 0.653978 0.756514 0 0.592545 0.805537 0 0.55029 0.834974 0 0.517832 0.855482 0 0.490884 0.871225 0 0.467066 0.884223 0 0.444797 0.895631 0 0.42279 0.906228 0 0.399706 0.916644 0 0.373734 0.927536 0 0.34173 0.939798 0 0.292849 0.956159 0 0.21377 0.976884 0 0.117868 0.993029 0 0.0291104 0.999576 0 0.999098 0.0424665 0 0.995953 0.0898705 0 0.994011 0.109284 0 0.995047 0.0994056 0 0.998145 0.0608768 0 1 0 0 1 0 0 0.324001 0.946057 0 0.347741 0.937591 0 0.358232 0.933633 0 0.356766 0.934194 0 0.343166 0.939275 0 0.31574 0.948846 0 0.270891 0.96261 0 0.202377 0.979308 0 0.0993996 0.995048 0 0.997837 0.0657306 0 0.967658 0.252264 0 0.923125 0.384499 0 0.888346 0.459174 0 0.871186 0.490953 0 0.876371 0.481636 0 0.9121 0.409968 0 0.98133 0.192334 0 0.223971 0.974596 0 0.61158 0.791183 0 0.79901 0.601317 0 0.865596 0.500743 0 0.879063 0.476706 0 0.853915 0.520413 0 0.351123 0.936329 0 0.351123 0.936329 0 0.351123 0.936329 0 0.351123 0.936329 0 0.351123 0.936329 0 0.351123 0.936329 0 0.351123 0.936329 0 1 0 0 0.970143 0.242536 0 0.970143 0.242536 0 0.970143 0.242536 0 1 0 0 0.8 0.6 0 0.8 0.6 0 0.8 0.6 0 1 0 0 0.948683 0.316228 0 0.131038 0.991377 0 0.413771 0.910381 0 0.664396 0.74738 0 0.725223 0.688514 0 0.575229 0.817993 0 0.222744 0.974877 0 0.993803 0.111155 0 0.958232 0.285991 0 0.93338 0.35889 0 0.455867 0.890048 0 0.103851 0.994593 0 0.92058 0.390553 0 0.833315 0.552799 0 0.300545 0.953768 0 0.229056 0.973413 0 0.737422 0.675433 0 0.988712 0.149828 0 0.983679 0.179932 0 0.890115 0.455736 0 0.604082 0.796922 0 0.303868 0.952714 0 0.175324 0.984511 0 0.972757 0.231829 0 0.963732 0.266874 0 0.275575 0.96128 0 0.14896 0.988843 0 0.522072 0.852902 0 0.139696 0.990194 0 0.721006 0.692928 0 0.260733 0.965411 0 0.232851 0.972513 0 0.275992 0.96116 0 0.921669 0.387978 0 0.167234 0.985917 0 0.115836 0.993268 0 0.991516 0.129988 0 0.385751 0.922603 0 0.991125 0.132932 0 0.525334 0.850896 0 0.227477 0.973783 0 0.904972 0.42547 0 0.223139 0.974787 0 0.333688 0.942684 0 0.953731 0.300662 0 0.601302 0.799022 0 0.97169 0.236261 0 0.944603 0.328215 0 0.170182 0.985413 0 0.222161 0.97501 0 0.930606 0.366023 0 0.810153 0.586219 0 0.767296 0.641293 0 0.815904 0.578187 0 0.229737 0.973253 0 0.261324 0.965251 0 0.219195 0.975681 0 0.65211 0.758125 0 0.673724 0.738983 0 0.221366 0.975191 0 0.200099 0.979776 0 0.017052 0.999855 0 0.984616 0.174735 0 0.591829 0.806063 0 0.402509 0.915416 0 0.0213382 0.999772 0 0.999648 0.0265215 0 0.207178 0.978303 0 0.232165 0.972676 0 0.172786 0.984959 0 0.382657 0.92389 0 0.0286893 0.999588 0 0.0380361 0.999276 0 0.984248 0.176795 0 0.092456 0.995717 0 0.171756 0.985139 0 0.890395 0.455189 0 0.954728 0.297481 0 0.908295 0.41833 0 0.211701 0.977334 0 0.219839 0.975536 0 0.964013 0.265855 0 0.937212 0.348762 0 0.947039 0.321118 0 0.913681 0.406433 0 0.933804 0.357785 0 0.19142 0.981508 0 0.238527 0.971136 0 0.179305 0.983794 0 0.947719 0.319107 0 0.955078 0.296355 0 0.915072 0.403291 0 0.91257 0.40892 0 0.882313 0.470662 0 0.863464 0.504411 0 0.875866 0.482555 0 0.762265 0.647265 0 0.208772 0.977964 0 0.277609 0.960694 0 0.21855 0.975826 0 0.263991 0.964525 0 0.288396 0.957511 0 0.999997 0.00255369 0 0.999588 0.0286893 0 0.136852 0.990591 0 0.223204 0.974772 0 0.986389 0.164428 0 0.968986 0.247115 0 0.975463 0.220161 0 0.152316 0.988332 0 0.0666751 0.997775 0 0.981933 0.189231 0 0.992209 0.124582 0 0.987211 0.159418 0 0.0993154 0.995056 0 0.952773 0.303684 0 0.978948 0.204108 0 0.416445 0.909161 0 0.357909 0.933756 0 0.396885 0.917868 0 0.952186 0.30552 0 0.932443 0.361317 0 0.25416 0.967162 0 0.248537 0.968622 0 0.293505 0.955957 0 0.224996 0.97436 0 0.106807 0.99428 0 0.624739 0.780833 0 0.650185 0.759776 0 0.722325 0.691554 0 0.944334 0.328987 0 0.970115 0.242646 0 0.999986 0.00523249 0 0.984176 0.177192 0 0.999756 0.0220939 0 0.295715 0.955276 0 0.427858 0.903846 0 0.106041 0.994362 0 0.994176 0.107765 0 0.433916 0.900953 0 0.0517428 0.99866 0 0.484255 0.874927 0 0.269853 0.962902 0 0.323966 0.946069 0 0.52306 0.852296 0 0.497844 0.867267 0 0.269248 0.963071 0 0.316071 0.948736 0 0.345067 0.938578 0 0.999997 0.0025786 0 0.974109 0.226078 0 0.675782 0.737102 0 0.986397 0.16438 0 0.993089 0.117366 0 0.99662 0.082149 0 0.996872 0.0790278 0 0.00624822 0.99998 0 0.313597 0.949556 0 0.325464 0.945554 0 0.3084 0.951257 0 0.895113 0.445838 0 0.899181 0.437578 0 0.227914 0.973681 0 0.230772 0.973008 0 0.328025 0.944669 0 0.329759 0.944065 0 0.286103 0.958199 0 0.444565 0.895747 0 0.483497 0.875346 0 0.0357027 0.999362 0 0.129802 0.99154 0 0.364749 0.931106 0 0.999999 0.00104822 0 0.930627 0.365968 0 0.242548 0.970139 0 0.317197 0.94836 0 0.319877 0.947459 0 0.341593 0.939848 0 0.913199 0.407513 0 0.0803233 0.996769 0 0.569475 0.822009 0 0.632171 0.774829 0 0.662832 0.748768 0 0.423704 0.905801 0 0.398916 0.916987 0 0.855012 0.518608 0 0.507222 0.861815 0 0.00610483 0.999981 0 0.529293 0.848439 0 0.560594 0.828091 0 0.557758 0.830004 0 0.595527 0.803335 0 0.964396 0.264463 0 0.96745 0.253061 0 0.338859 0.940837 0 0.343866 0.939019 0 0.217798 0.975994 0 0.949364 0.314178 0 0.937742 0.347333 0 0.728803 0.684723 0 0.937707 0.347426 0 0.867821 0.496877 0 0.898786 0.438387 0 0.193164 0.981166 0 0.240565 0.970633 0 0.573106 0.819481 0 0.990459 0.137808 0 0.911835 0.410556 0 0.915719 0.401819 0 0.921409 0.388593 0 0.91934 0.393463 0 0.968984 0.247123 0 0.931738 0.363131 0 
VECTORS VY float
6.12323e-17 1 0 6.12323e-17 1 0 -0.447214 0.894427 0 -0.447214 0.894427 0 -0.447214 0.894427 0 6.12323e-17 1 0 -0.999991 0.00435793 0 -0.997215 0.0745844 0 -0.998389 0.056731 0 -0.0503633 0.998731 0 -0.241375 0.970432 0 -0.469929 0.882704 0 -0.65452 0.756044 0 -0.756514 0.653978 0 -0.805537 0.592545 0 -0.834974 0.55029 0 -0.855482 0.517832 0 -0.871225 0.490884 0 -0.884223 0.467066 0 -0.895631 0.444797 0 -0.906228 0.42279 0 -0.916644 0.399706 0 -0.927536 0.373734 0 -0.939798 0.34173 0 -0.956159 0.292849 0 -0.976884 0.21377 0 -0.993029 0.117868 0 -0.999576 0.0291104 0 -0.0424665 0.999098 0 -0.0898705 0.995953 0 -0.109284 0.994011 0 -0.0994056 0.995047 0 -0.0608768 0.998145 0 6.12323e-17 1 0 6.12323e-17 1 0 -0.946057 0.324001 0 -0.937591 0.347741 0 -0.933633 0.358232 0 -0.934194 0.356766 0 -0.939275 0.343166 0 -0.948846 0.31574 0 -0.96261 0.270891 0 -0.979308 0.202377 0 -0.995048 0.0993996 0 -0.0657306 0.997837 0 -0.252264 0.967658 0 -0.384499 0.923125 0 -0.459174 0.888346 0 -0.490953 0.871186 0 -0.481636 0.876371 0 -0.409968 0.9121 0 -0.192334 0.98133 0 -0.974596 0.223971 0 -0.791183 0.61158 0 -0.601317 0.79901 0 -0.500743 0.865596 0 -0.476706 0.879063 0 -0.520413 0.853915 0 -0.936329 0.351123 0 -0.936329 0.351123 0 -0.936329 0.351123 0 -0.936329 0.351123 0 -0.936329 0.351123 0 -0.936329 0.351123 0 -0.936329 0.351123 0 6.12323e-17 1 0 -0.242536 0.970143 0 -0.242536 0.970143 0 -0.242536 0.970143 0 6.12323e-17 1 0 -0.6 0.8 0 -0.6 0.8 0 -0.6 0.8 0 6.12323e-17 1 0 -0.316228 0.948683 0 -0.991377 0.131038 0 -0.910381 0.413771 0 -0.74738 0.664396 0 -0.688514 0.725223 0 -0.817993 0.575229 0 -0.974877 0.222744 0 -0.111155 0.993803 0 -0.285991 0.958232 0 -0.35889 0.93338 0 -0.890048 0.455867 0 -0.994593 0.103851 0 -0.390553 0.92058 0 -0.552799 0.833315 0 -0.953768 0.300545 0 -0.973413 0.229056 0 -0.675433 0.737422 0 -0.149828 0.988712 0 -0.179932 0.983679 0 -0.455736 0.890115 0 -0.796922 0.604082 0 -0.952714 0.303868 0 -0.984511 0.175324 0 -0.231829 0.972757 0 -0.266874 0.963732 0 -0.96128 0.275575 0 -0.988843 0.14896 0 -0.852902 0.522072 0 -0.990194 0.139696 0 -0.692928 0.721006 0 -0.965411 0.260733 0 -0.972513 0.232851 0 -0.96116 0.275992 0 -0.387978 0.921669 0 -0.985917 0.167234 0 -0.993268 0.115836 0 -0.129988 0.991516 0 -0.922603 0.385751 0 -0.132932 0.991125 0 -0.850896 0.525334 0 -0.973783 0.227477 0 -0.42547 0.904972 0 -0.974787 0.223139 0 -0.942684 0.333688 0 -0.300662 0.953731 0 -0.799022 0.601302 0 -0.236261 0.97169 0 -0.328215 0.944603 0 -0.985413 0.170182 0 -0.97501 0.222161 0 -0.366023 0.930606 0 -0.586219 0.810153 0 -0.641293 0.767296 0 -0.578187 0.815904 0 -0.973253 0.229737 0 -0.965251 0.261324 0 -0.975681 0.219195 0 -0.758125 0.65211 0 -0.738983 0.673724 0 -0.975191 0.221366 0 -0.979776 0.200099 0 -0.999855 0.017052 0 -0.174735 0.984616 0 -0.806063 0.591829 0 -0.915416 0.402509 0 -0.999772 0.0213382 0 -0.0265215 0.999648 0 -0.978303 0.207178 0 -0.972676 0.232165 0 -0.984959 0.172786 0 -0.92389 0.382657 0 -0.999588 0.0286893 0 -0.999276 0.0380361 0 -0.176795 0.984248 0 -0.995717 0.092456 0 -0.985139 0.171756 0 -0.455189 0.890395 0 -0.297481 0.954728 0 -0.41833 0.908295 0 -0.977334 0.211701 0 -0.975536 0.219839 0 -0.265855 0.964013 0 -0.348762 0.937212 0 -0.321118 0.947039 0 -0.406433 0.913681 0 -0.357785 0.933804 0 -0.981508 0.19142 0 -0.971136 0.238527 0 -0.983794 0.179305 0 -0.319107 0.947719 0 -0.296355 0.955078 0 -0.403291 0.915072 0 -0.40892 0.91257 0 -0.470662 0.882313 0 -0.504411 0.863464 0 -0.482555 0.875866 0 -0.647265 0.762265 0 -0.977964 0.208772 0 -0.960694 0.277609 0 -0.975826 0.21855 0 -0.964525 0.263991 0 -0.957511 0.288396 0 -0.00255369 0.999997 0 -0.0286893 0.999588 0 -0.990591 0.136852 0 -0.974772 0.223204 0 -0.164428 0.986389 0 -0.247115 0.968986 0 -0.220161 0.975463 0 -0.988332 0.152316 0 -0.997775 0.0666751 0 -0.189231 0.981933 0 -0.124582 0.992209 0 -0.159418 0.987211 0 -0.995056 0.0993154 0 -0.303684 0.952773 0 -0.204108 0.978948 0 -0.909161 0.416445 0 -0.933756 0.357909 0 -0.917868 0.396885 0 -0.30552 0.952186 0 -0.361317 0.932443 0 -0.967162 0.25416 0 -0.968622 0.248537 0 -0.955957 0.293505 0 -0.97436 0.224996 0 -0.99428 0.106807 0 -0.780833 0.624739 0 -0.759776 0.650185 0 -0.691554 0.722325 0 -0.328987 0.944334 0 -0.242646 0.970115 0 -0.00523249 0.999986 0 -0.177192 0.984176 0 -0.0220939 0.999756 0 -0.955276 0.295715 0 -0.903846 0.427858 0 -0.994362 0.106041 0 -0.107765 0.994176 0 -0.900953 0.433916 0 -0.99866 0.0517428 0 -0.874927 0.484255 0 -0.962902 0.269853 0 -0.946069 0.323966 0 -0.852296 0.52306 0 -0.867267 0.497844 0 -0.963071 0.269248 0 -0.948736 0.316071 0 -0.938578 0.345067 0 -0.0025786 0.999997 0 -0.226078 0.974109 0 -0.737102 0.675782 0 -0.16438 0.986397 0 -0.117366 0.993089 0 -0.082149 0.99662 0 -0.0790278 0.996872 0 -0.99998 0.00624822 0 -0.949556 0.313597 0 -0.945554 0.325464 0 -0.951257 0.3084 0 -0.445838 0.895113 0 -0.437578 0.899181 0 -0.973681 0.227914 0 -0.973008 0.230772 0 -0.944669 0.328025 0 -0.944065 0.329759 0 -0.958199 0.286103 0 -0.895747 0.444565 0 -0.875346 0.483497 0 -0.999362 0.0357027 0 -0.99154 0.129802 0 -0.931106 0.364749 0 -0.00104822 0.999999 0 -0.365968 0.930627 0 -0.970139 0.242548 0 -0.94836 0.317197 0 -0.947459 0.319877 0 -0.939848 0.341593 0 -0.407513 0.913199 0 -0.996769 0.0803233 0 -0.822009 0.569475 0 -0.774829 0.632171 0 -0.748768 0.662832 0 -0.905801 0.423704 0 -0.916987 0.398916 0 -0.518608 0.855012 0 -0.861815 0.507222 0 -0.999981 0.00610483 0 -0.848439 0.529293 0 -0.828091 0.560594 0 -0.830004 0.557758 0 -0.803335 0.595527 0 -0.264463 0.964396 0 -0.253061 0.96745 0 -0.940837 0.338859 0 -0.939019 0.343866 0 -0.975994 0.217798 0 -0.314178 0.949364 0 -0.347333 0.937742 0 -0.684723 0.728803 0 -0.347426 0.937707 0 -0.496877 0.867821 0 -0.438387 0.898786 0 -0.981166 0.193164 0 -0.970633 0.240565 0 -0.819481 0.573106 0 -0.137808 0.990459 0 -0.410556 0.911835 0 -0.401819 0.915719 0 -0.388593 0.921409 0 -0.393463 0.91934 0 -0.247123 0.968984 0 -0.363131 0.931738 0 
VECTORS VXM float