# vtk DataFile Version 3.0
Generated by GMDS VTK Writer

ASCII
DATASET UNSTRUCTURED_GRID
POINTS 83 float
2.8 0 -0
3.2 0.2 -0
3 0.1 0
0.7 1.3 -0
2.80091 0.206545 0
2.81264 0.413088 0
2.76314 0.612177 0
2.62846 0.76772 0
2.4618 0.890315 0
2.28472 0.997499 0
2.10169 1.09418 0
1.9141 1.1817 0
1.7221 1.25906 0
1.5243 1.31964 0
1.31903 1.34401 0
1.11233 1.33522 0
0.906544 1.3126 0
1 2.1 -0
3.2 1.6 -0
1.20291 2.03051 0
1.4032 1.95366 0
1.60468 1.88005 0
1.81107 1.82197 0
2.02396 1.8007 0
2.2305 1.85455 0
2.42096 1.953 0
2.60891 2.05629 0
2.81523 2.09689 0
2.9812 1.96845 0
3.08853 1.78291 0
0.775 1.5 0
0.85 1.7 0
0.925 1.9 0
2.8 1.5 0
3 1.55 0
3.1 1.1 0
2.95 1.3 0
3.4 1.2 -0
3.37082 0.978809 0
3.22274 0.812356 0
3.0957 0.631966 0
3.12052 0.410438 0
2.29558 1.22559 0
1.20166 1.51705 0
2.36896 1.73919 0
2.72621 1.28347 0
1.88505 1.38514 0
1.66354 1.69077 0
2.79914 0.824051 0
2.60461 1.45092 0
2.15648 1.64088 0
2.89322 1.82599 0
2.6406 0.958316 0
1.25223 1.8369 0
1.42838 1.52496 0
2.68487 1.63752 0
2.32706 1.5681 0
2.21626 1.43783 0
1.89245 1.61384 0
2.52425 1.26389 0
0.987632 1.51381 0
2.8374 1.06377 0
1.45514 1.73717 0
1.66685 1.48573 0
1.08381 1.72111 0
2.58681 1.81321 0
2.99675 0.853491 0
2.40847 1.4237 0
2.98045 0.306838 0
2.07548 1.29939 0
2.94906 0.510608 0
2.47424 1.07639 0
2.0442 1.47492 0
2.7733 1.92327 0
1.28353 1.66695 0
1.09174 1.91688 0
2.49611 1.60523 0
2.64054 1.12832 0
2.922 0.687311 0
2.86964 1.6786 0
3.27335 1.02313 0
1.55287 1.60872 0
2.76068 1.77586 0

CELLS 122 488
3 36 61 45 
3 58 46 63 
3 45 61 77 
3 58 63 47 
3 39 35 80 
3 39 66 35 
3 36 35 61 
3 54 63 13 
3 39 80 38 
3 50 58 23 
3 50 72 58 
3 29 34 79 
3 54 81 63 
3 55 76 65 
3 44 65 76 
3 43 64 74 
3 44 50 24 
3 29 79 51 
3 34 29 18 
3 28 51 73 
3 39 40 66 
3 30 31 60 
3 53 74 64 
3 30 60 16 
3 22 58 47 
3 49 67 76 
3 40 78 66 
3 41 68 70 
3 14 54 13 
3 56 76 67 
3 42 69 57 
3 2 68 1 
3 21 47 62 
3 3 30 16 
3 60 64 43 
3 41 1 68 
3 7 52 48 
3 50 44 56 
3 0 4 2 
3 5 70 68 
3 42 57 67 
3 27 28 73 
3 49 59 67 
3 35 66 61 
3 42 67 59 
3 12 63 46 
3 42 59 71 
3 46 72 69 
3 16 60 15 
3 49 45 59 
3 49 55 33 
3 50 56 57 
3 21 62 20 
3 31 32 64 
3 28 29 51 
3 44 25 65 
3 47 81 62 
3 24 25 44 
3 23 24 50 
3 21 22 47 
3 22 23 58 
3 20 53 19 
3 20 62 53 
3 9 10 42 
3 60 31 64 
3 14 43 54 
3 12 46 11 
3 14 15 43 
3 12 13 63 
3 33 45 49 
3 43 15 60 
3 58 72 46 
3 36 45 33 
3 50 57 72 
3 53 64 75 
3 32 75 64 
3 25 26 65 
3 40 41 70 
3 8 52 7 
3 48 52 61 
3 42 10 69 
3 11 46 69 
3 7 48 6 
3 56 67 57 
3 57 69 72 
3 42 71 9 
3 2 4 68 
3 8 71 52 
3 71 77 52 
3 33 55 79 
3 19 75 17 
3 17 75 32 
3 54 62 81 
3 79 55 82 
3 5 68 4 
3 61 52 77 
3 61 66 48 
3 11 69 10 
3 5 6 70 
3 6 48 78 
3 54 74 62 
3 8 9 71 
3 54 43 74 
3 71 59 77 
3 70 6 78 
3 51 82 73 
3 45 77 59 
3 26 27 73 
3 19 53 75 
3 53 62 74 
3 26 73 65 
3 47 63 81 
3 48 66 78 
3 33 79 34 
3 49 76 55 
3 79 82 51 
3 37 38 80 
3 55 65 82 
3 44 76 56 
3 70 78 40 
3 73 82 65 
3 37 80 35 

CELL_TYPES 122
5 
5 
5 
5 
5 
5 
5 
5 
5 
5 
5 
5 
5 
5 
5 
5 
5 
5 
5 
5 
5 
5 
5 
5 
5 
5 
5 
5 
5 
5 
5 
5 
5 
5 
5 
5 
5 
5 
5 
5 
5 
5 
5 
5 
5 
5 
5 
5 
5 
5 
5 
5 
5 
5 
5 
5 
5 
5 
5 
5 
5 
5 
5 
5 
5 
5 
5 
5 
5 
5 
5 
5 
5 
5 
5 
5 
5 
5 
5 
5 
5 
5 
5 
5 
5 
5 
5 
5 
5 
5 
5 
5 
5 
5 
5 
5 
5 
5 
5 
5 
5 
5 
5 
5 
5 
5 
5 
5 
5 
5 
5 
5 
5 
5 
5 
5 
5 
5 
5 
5 
5 
5 
POINT_DATA 83
SCALARS GMDS_ID int 1
LOOKUP_TABLE default
0 1 2 3 4 5 6 7 8 9 10 11 12 13 14 15 16 17 18 19 20 21 22 23 24 25 26 27 28 29 30 31 32 33 34 35 36 37 38 39 40 41 42 43 44 45 46 47 48 49 50 51 52 53 54 55 56 57 58 59 60 61 62 63 64 65 66 67 68 69 70 71 72 73 74 75 76 77 78 79 80 81 82 
SCALARS angle float 1
LOOKUP_TABLE default
0 0 1.85459 0 6.16088 0.373892 1.9147 3.30043 3.92613 4.22262 4.4382 4.64408 4.9227 5.45248 6.13187 0.303967 0.340836 0 0 4.89053 4.84987 5.03397 5.53538 0.310962 1.46427 1.95918 1.39363 0 2.87327 2.14353 4.8481 4.8481 4.8481 0 0.979915 0 2.574 0 4.56674 3.60196 5.27921 0.945409 4.54427 6.17525 1.34873 0.483065 5.10646 5.36821 6.21723 0.146582 0.499329 2.06845 4.2202 5.21178 5.73948 0.514558 0.631666 5.54337 5.70878 5.1028 0.0423156 6.0272 5.28162 5.33646 5.46959 1.17397 6.08853 6.1105 0.0847098 4.76835 5.49803 4.18692 5.49187 1.47706 5.61124 5.00971 0.736589 4.70481 5.49543 0.882138 0 5.43209 1.20145 
VECTORS cross_X float
1 0 0 1 0 0 0.894427 0.447214 0 1 0 0 0.0305713 0.999533 0 0.995635 0.0933369 0 0.887606 0.460603 0 0.678477 0.734621 0 0.555749 0.83135 0 0.492658 0.870223 0 0.445064 0.895499 0 0.398404 0.91721 0 0.333601 0.942714 0 0.206186 0.978513 0 0.0378209 0.999285 0 0.997114 0.0759186 0 0.996372 0.085106 0 1 0 0 1 0 0 0.341173 0.94 0 0.35071 0.936484 0 0.307251 0.951629 0 0.185865 0.982575 0 0.99698 0.0776623 0 0.933742 0.357946 0 0.882429 0.470445 0 0.939918 0.341401 0 1 0 0 0.752915 0.658118 0 0.859818 0.510601 0 0.351123 0.936329 0 0.351123 0.936329 0 0.351123 0.936329 0 1 0 0 0.970143 0.242536 0 1 0 0 0.8 0.6 0 1 0 0 0.416062 0.909336 0 0.621227 0.783631 0 0.248368 0.968666 0 0.972199 0.234158 0 0.421164 0.906984 0 0.0269798 0.999636 0 0.94369 0.33083 0 0.992717 0.120473 0 0.289956 0.95704 0 0.226753 0.973952 0 0.0164891 0.999864 0 0.999329 0.0366373 0 0.992219 0.124508 0 0.869251 0.494372 0 0.493184 0.869925 0 0.26466 0.964342 0 0.135509 0.990776 0 0.991737 0.128285 0 0.987557 0.157261 0 0.183902 0.982945 0 0.143109 0.989707 0 0.290832 0.956774 0 0.999944 0.0105787 0 0.0639527 0.997953 0 0.247783 0.968815 0 0.234479 0.972121 0 0.201999 0.979386 0 0.957239 0.289298 0 0.0486452 0.998816 0 0.0431577 0.999068 0 0.999776 0.0211759 0 0.36972 0.929143 0 0.195031 0.980797 0 0.500404 0.865792 0 0.196541 0.980496 0 0.932593 0.36093 0 0.167198 0.985923 0 0.313017 0.949747 0 0.983093 0.183108 0 0.384432 0.923153 0 0.195669 0.98067 0 0.975781 0.218751 0 1 0 0 0.211172 0.977449 0 0.955229 0.295867 0 
VECTORS VY float
6.12323e-17 1 0 6.12323e-17 1 0 -0.447214 0.894427 0 6.12323e-17 1 0 -0.999533 0.0305713 0 -0.0933369 0.995635 0 -0.460603 0.887606 0 -0.734621 0.678477 0 -0.83135 0.555749 0 -0.870223 0.492658 0 -0.895499 0.445064 0 -0.91721 0.398404 0 -0.942714 0.333601 0 -0.978513 0.206186 0 -0.999285 0.0378209 0 -0.0759186 0.997114 0 -0.085106 0.996372 0 6.12323e-17 1 0 6.12323e-17 1 0 -0.94 0.341173 0 -0.936484 0.35071 0 -0.951629 0.307251 0 -0.982575 0.185865 0 -0.0776623 0.99698 0 -0.357946 0.933742 0 -0.470445 0.882429 0 -0.341401 0.939918 0 6.12323e-17 1 0 -0.658118 0.752915 0 -0.510601 0.859818 0 -0.936329 0.351123 0 -0.936329 0.351123 0 -0.936329 0.351123 0 6.12323e-17 1 0 -0.242536 0.970143 0 6.12323e-17 1 0 -0.6 0.8 0 6.12323e-17 1 0 -0.909336 0.416062 0 -0.783631 0.621227 0 -0.968666 0.248368 0 -0.234158 0.972199 0 -0.906984 0.421164 0 -0.999636 0.0269798 0 -0.33083 0.94369 0 -0.120473 0.992717 0 -0.95704 0.289956 0 -0.973952 0.226753 0 -0.999864 0.0164891 0 -0.0366373 0.999329 0 -0.124508 0.992219 0 -0.494372 0.869251 0 -0.869925 0.493184 0 -0.964342 0.26466 0 -0.990776 0.135509 0 -0.128285 0.991737 0 -0.157261 0.987557 0 -0.982945 0.183902 0 -0.989707 0.143109 0 -0.956774 0.290832 0 -0.0105787 0.999944 0 -0.997953 0.0639527 0 -0.968815 0.247783 0 -0.972121 0.234479 0 -0.979386 0.201999 0 -0.289298 0.957239 0 -0.998816 0.0486452 0 -0.999068 0.0431577 0 -0.0211759 0.999776 0 -0.929143 0.36972 0 -0.980797 0.195031 0 -0.865792 0.500404 0 -0.980496 0.196541 0 -0.36093 0.932593 0 -0.985923 0.167198 0 -0.949747 0.313017 0 -0.183108 0.983093 0 -0.923153 0.384432 0 -0.98067 0.195669 0 -0.218751 0.975781 0 6.12323e-17 1 0 -0.977449 0.211172 0 -0.295867 0.955229 0 
VECTORS VXM float
-1 1.22465e-16 0 -1 1.22465e-16 0 -0.894427 -0.447214 0 -1 1.22465e-16 0 -0.0305713 -0.999533 0 -0.995635 -0.0933369 0 -0.887606 -0.460603 0 -0.678477 -0.734621 0 -0.555749 -0.83135 0 -0.492658 -0.870223 0 -0.445064 -0.895499 0 -0.398404 -0.91721 0 -0.333601 -0.942714 0 -0.206186 -0.978513 0 -0.0378209 -0.999285 0 -0.997114 -0.0759186 0 -0.996372 -0.085106 0 -1 1.22465e-16 0 -1 1.22465e-16 0 -0.341173 -0.94 0 -0.35071 -0.936484 0 -0.307251 -0.951629 0 -0.185865 -0.982575 0 -0.99698 -0.0776623 0 -0.933742 -0.357946 0 -0.882429 -0.470445 0 -0.939918 -0.341401 0 -1 1.22465e-16 0 -0.752915 -0.658118 0 -0.859818 -0.510601 0 -0.351123 -0.936329 0 -0.351123 -0.936329 0 -0.351123 -0.936329 0 -1 1.22465e-16 0 -0.970143 -0.242536 0 -1 1.22465e-16 0 -0.8 -0.6 0 -1 1.22465e-16 0 -0.416062 -0.909336 0 -0.621227 -0.783631 0 -0.248368 -0.968666 0 -0.972199 -0.234158 0 -0.421164 -0.906984 0 -0.0269798 -0.999636 0 -0.94369 -0.33083 0 -0.992717 -0.120473 0 -0.289956 -0.95704 0 -0.226753 -0.973952 0 -0.0164891 -0.999864 0 -0.999329 -0.0366373 0 -0.992219 -0.124508 0 -0.869251 -0.494372 0 -0.493184 -0.869925 0 -0.26466 -0.964342 0 -0.135509 -0.990776 0 -0.991737 -0.128285 0 -0.987557 -0.157261 0 -0.183902 -0.982945 0 -0.143109 -0.989707 0 -0.290832 -0.956774 0 -0.999944 -0.0105787 0 -0.0639527 -0.997953 0 -0.247783 -0.968815 0 -0.234479 -0.972121 0 -0.201999 -0.979386 0 -0.957239 -0.289298 0 -0.0486452 -0.998816 0 -0.0431577 -0.999068 0 -0.999776 -0.0211759 0 -0.36972 -0.929143 0 -0.195031 -0.980797 0 -0.500404 -0.865792 0 -0.196541 -0.980496 0 -0.932593 -0.36093 0 -0.167198 -0.985923 0 -0.313017 -0.949747 0 -0.983093 -0.183108 0 -0.384432 -0.923153 0 -0.195669 -0.98067 0 -0.975781 -0.218751 0 -1 1.22465e-16 0 -0.211172 -0.977449 0 -0.955229 -0.295867 0 
VECTORS VYM float
-1.83697e-16 -1 0 -1.83697e-16 -1 0 0.447214 -0.894427 0 -1.83697e-16 -1 0 0.999533 -0.0305713 0 0.0933369 -0.995635 0 0.460603 -0.887606 0 0.734621 -0.678477 0 0.83135 -0.555749 0 0.870223 -0.492658 0 0.895499 -0.445064 0 0.91721 -0.398404 0 0.942714 -0.333601 0 0.978513 -0.206186 0 0.999285 -0.0378209 0 0.0759186 -0.997114 0 0.085106 -0.996372 0 -1.83697e-16 -1 0 -1.83697e-16 -1 0 0.94 -0.341173 0 0.936484 -0.35071 0 0.951629 -0.307251 0 0.982575 -0.185865 0 0.0776623 -0.99698 0 0.357946 -0.933742 0 0.470445 -0.882429 0 0.341401 -0.939918 0 -1.83697e-16 -1 0 0.658118 -0.752915 0 0.510601 -0.859818 0 0.936329 -0.351123 0 0.936329 -0.351123 0 0.936329 -0.351123 0 -1.83697e-16 -1 0 0.242536 -0.970143 0 -1.83697e-16 -1 0 0.6 -0.8 0 -1.83697e-16 -1 0 0.909336 -0.416062 0 0.783631 -0.621227 0 0.968666 -0.248368 0 0.234158 -0.972199 0 0.906984 -0.421164 0 0.999636 -0.0269798 0 0.33083 -0.94369 0 0.120473 -0.992717 0 0.95704 -0.289956 0 0.973952 -0.226753 0 0.999864 -0.0164891 0 0.0366373 -0.999329 0 0.124508 -0.992219 0 0.494372 -0.869251 0 0.869925 -0.493184 0 0.964342 -0.26466 0 0.990776 -0.135509 0 0.128285 -0.991737 0 0.157261 -0.987557 0 0.982945 -0.183902 0 0.989707 -0.143109 0 0.956774 -0.290832 0 0.0105787 -0.999944 0 0.997953 -0.0639527 0 0.968815 -0.247783 0 0.972121 -0.234479 0 0.979386 -0.201999 0 0.289298 -0.957239 0 0.998816 -0.0486452 0 0.999068 -0.0431577 0 0.0211759 -0.999776 0 0.929143 -0.36972 0 0.980797 -0.195031 0 0.865792 -0.500404 0 0.980496 -0.196541 0 0.36093 -0.932593 0 0.985923 -0.167198 0 0.949747 -0.313017 0 0.183108 -0.983093 0 0.923153 -0.384432 0 0.98067 -0.195669 0 0.218751 -0.975781 0 -1.83697e-16 -1 0 0.977449 -0.211172 0 0.295867 -0.955229 0 


CELL_DATA 122
SCALARS GMDS_ID int 1
LOOKUP_TABLE default
0 1 2 3 4 5 6 7 8 9 10 11 12 13 14 15 16 17 18 19 20 21 22 23 24 25 26 27 28 29 30 31 32 33 34 35 36 37 38 39 40 41 42 43 44 45 46 47 48 49 50 51 52 53 54 55 56 57 58 59 60 61 62 63 64 65 66 67 68 69 70 71 72 73 74 75 76 77 78 79 80 81 82 83 84 85 86 87 88 89 90 91 92 93 94 95 96 97 98 99 100 101 102 103 104 105 106 107 108 109 110 111 112 113 114 115 116 117 118 119 120 121 

SCALARS BND_SURFACE_COLOR int 1
LOOKUP_TABLE default
2 2 2 2 2 2 2 2 2 2 2 2 2 2 2 2 2 2 2 2 2 2 2 2 2 2 2 2 2 2 2 2 2 2 2 2 2 2 2 2 2 2 2 2 2 2 2 2 2 2 2 2 2 2 2 2 2 2 2 2 2 2 2 2 2 2 2 2 2 2 2 2 2 2 2 2 2 2 2 2 2 2 2 2 2 2 2 2 2 2 2 2 2 2 2 2 2 2 2 2 2 2 2 2 2 2 2 2 2 2 2 2 2 2 2 2 2 2 2 2 2 2 

SCALARS angleDeviation float 1
LOOKUP_TABLE default
1.88666 0.401545 1.37429 0.248215 1.78749 1.78749 1.88666 0.268681 1.78749 0.715824 0.860431 0.840931 0.268681 0.43961 0.408095 0.47044 0.643292 0.840931 1.42902 0.930804 1.65771 0.984932 0.266304 1.18395 0.227043 0.606183 0.539547 1.15371 0.452922 0.606183 0.666063 1.23639 0.222827 1.18395 0.570605 0.630273 1.94453 0.566268 1.31793 0.772698 1.04415 1.91551 0.884645 0.170657 1.04415 0.275836 0.610583 0.482343 0.199014 1.10897 0.343039 0.914324 0.287834 0.414327 0.536545 0.523472 0.100313 0.406967 0.76887 0.334269 0.705847 0.241276 0.287834 0.214436 0.984932 0.290517 0.308255 0.303524 0.353187 0.322044 0.274599 0.401545 1.716 0.860431 0.306587 0.414327 0.523472 1.29959 0.613177 1.33135 0.220101 0.308255 2.0944 0.914324 0.516675 0.238231 1.31793 0.196046 0.34526 0.588092 0.928439 0.956722 0.305239 0.457929 0.330797 1.20467 0.126684 0.220101 1.7999 1.80164 0.305239 0.197658 0.376011 0.610583 1.80164 0.577997 1.37429 0.984707 0.21417 0.266304 0.202058 0.0637549 0.4812 0.653276 0.393338 0.790873 1.1443 0.457929 0.478043 0.145882 0.202058 0 

SCALARS maxAngleDeviation float 1
LOOKUP_TABLE default
2.82999 0.602317 2.06144 0.372323 2.68123 2.68123 2.82999 0.403021 2.68123 1.07374 1.29065 1.2614 0.403021 0.659415 0.612142 0.70566 0.964938 1.2614 2.14353 1.39621 2.48657 1.4774 0.399455 1.77592 0.340565 0.909274 0.809321 1.73056 0.679383 0.909274 0.999095 1.85459 0.33424 1.77592 0.855908 0.945409 2.91679 0.849402 1.97689 1.15905 1.56623 2.87327 1.32697 0.255985 1.56623 0.413754 0.915875 0.723514 0.298521 1.66345 0.514558 1.37149 0.431751 0.62149 0.804818 0.785209 0.15047 0.610451 1.15331 0.501403 1.05877 0.361914 0.431751 0.321654 1.4774 0.435776 0.462382 0.455286 0.52978 0.483065 0.411899 0.602317 2.574 1.29065 0.45988 0.62149 0.785209 1.94939 0.919765 1.99703 0.330151 0.462382 2.91679 1.37149 0.775012 0.357347 1.97689 0.294069 0.51789 0.882138 1.39266 1.43508 0.457859 0.686894 0.496196 1.807 0.190026 0.330151 2.69985 2.70246 0.457859 0.296488 0.564017 0.915875 2.70246 0.866996 2.06144 1.47706 0.321254 0.399455 0.303087 0.0956324 0.7218 0.979915 0.590008 1.18631 1.71644 0.686894 0.717065 0.218823 0.303087 0 

