# vtk DataFile Version 3.0
Generated by GMDS VTK Writer

ASCII
DATASET UNSTRUCTURED_GRID
POINTS 224 float
5 0 0
0 0 0
10 0 0
0.0240764 0.490086 0
0.0960736 0.975452 0
0.215298 1.45142 0
0.380602 1.91342 0
0.590394 2.35698 0
0.842652 2.77785 0
1.13495 3.17197 0
1.46447 3.53553 0
1.82803 3.86505 0
2.22215 4.15735 0
2.64302 4.40961 0
3.08658 4.6194 0
3.54858 4.7847 0
4.02455 4.90393 0
4.50991 4.97592 0
5 5 0
5.49009 4.97592 0
5.97545 4.90393 0
6.45142 4.7847 0
6.91342 4.6194 0
7.35698 4.40961 0
7.77785 4.15735 0
8.17197 3.86505 0
8.53553 3.53553 0
8.86505 3.17197 0
9.15735 2.77785 0
9.40961 2.35698 0
9.6194 1.91342 0
9.7847 1.45142 0
9.90393 0.975452 0
9.97592 0.490086 0
0.5 0 0
1 0 0
1.5 0 0
2 0 0
2.5 0 0
3 0 0
3.5 0 0
4 0 0
4.5 0 0
5 0 0
5.5 0 0
6 0 0
6.5 0 0
7 0 0
7.5 0 0
8 0 0
8.5 0 0
9 0 0
9.5 0 0
5.06097 3.2218 0
4.47434 2.18346 0
5.33681 2.0061 0
3.95764 2.88185 0
6.03121 2.85229 0
2.97745 2.50699 0
7.02096 2.50277 0
2.73866 1.37819 0
7.26473 1.35821 0
2.18196 2.52766 0
7.81764 2.5266 0
1.9787 1.80203 0
8.02093 1.80103 0
1.16199 1.51186 0
8.83794 1.51166 0
1.70368 0.880093 0
8.29672 0.877018 0
0.667794 0.851865 0
9.33221 0.851865 0
4.54399 1.08733 0
5.61339 0.908508 0
4.09654 3.91257 0
6.00321 3.89964 0
3.10951 3.58239 0
6.90499 3.57461 0
5.40793 4.2336 0
4.718 4.25438 0
3.70151 1.75663 0
6.29108 1.69152 0
3.3938 0.806477 0
6.63174 0.762434 0
2.23016 3.10528 0
7.77192 3.10311 0
1.46293 2.45338 0
8.53724 2.45274 0
2.56723 0.612952 0
7.43864 0.599533 0
1.85184 0.440047 0
1.35184 0.440047 0
8.14836 0.438509 0
8.64836 0.438509 0
0.524198 1.38264 0
0.381934 0.913658 0
0.833897 0.425933 0
1.18574 0.865979 0
9.4758 1.38264 0
9.61807 0.913658 0
9.1661 0.425933 0
8.81446 0.864441 0
0.333897 0.425933 0
9.6661 0.425933 0
0.914891 1.18186 0
0.771295 1.71264 0
1.43283 1.19598 0
9.08507 1.18176 0
9.22867 1.71254 0
8.56733 1.19434 0
4.76765 2.70263 0
4.90558 2.09478 0
5.19889 2.61395 0
4.5093 3.05183 0
4.21599 2.53265 0
5.68401 2.4292 0
5.54609 3.03705 0
2.47807 2.15451 0
2.35868 1.59011 0
2.85805 1.94259 0
2.5797 2.51733 0
2.08033 2.16484 0
7.52094 2.1519 0
7.14285 1.93049 0
7.64283 1.57962 0
7.4193 2.51469 0
7.91928 2.16382 0
4.06054 4.40825 0
3.59156 4.26599 0
4.02709 3.39721 0
4.57875 3.56719 0
5.98933 4.40178 0
6.45832 4.25952 0
6.01721 3.37597 0
5.53209 3.56072 0
3.09805 4.1009 0
3.60302 3.74748 0
3.53357 3.23212 0
6.90921 4.097 0
6.4541 3.73712 0
6.4681 3.21345 0
5.69169 4.56876 0
5.20396 4.6168 0
5.23445 3.7277 0
5.70557 4.06662 0
4.88948 3.73809 0
5.06296 4.24399 0
4.859 4.62719 0
3.22008 1.56741 0
3.33948 2.13181 0
4.08793 1.97004 0
4.12275 1.42198 0
4.50917 1.63539 0
6.7779 1.52487 0
6.65602 2.09715 0
5.81395 1.84881 0
5.4751 1.45731 0
5.95223 1.30002 0
3.6969 0.403239 0
3.1969 0.403239 0
4.27199 0.543664 0
3.96889 0.946903 0
6.31587 0.381217 0
6.81587 0.381217 0
6.12257 0.835471 0
5.8067 0.454254 0
2.22616 3.63132 0
1.84731 3.32041 0
7.77489 3.63023 0
8.15373 3.31932 0
1.72082 2.1277 0
1.31246 1.98262 0
1.57034 1.65694 0
8.27909 2.12689 0
8.42943 1.65634 0
8.68759 1.9822 0
0.921767 2.1834 0
1.15279 2.61561 0
9.07832 2.18308 0
8.8473 2.6153 0
3.82958 2.31924 0
3.46754 2.69442 0
6.16114 2.27191 0
6.52608 2.67753 0
3.54765 1.28156 0
3.06623 1.09233 0
6.46141 1.22698 0
6.94823 1.06032 0
2.66583 3.86987 0
3.04348 3.04469 0
7.34142 3.86598 0
6.96298 3.03869 0
2.66983 3.34384 0
2.6038 2.80614 0
2.20606 2.81647 0
7.33846 3.33886 0
7.39644 2.80294 0
7.79478 2.81485 0
1.4637 2.99445 0
1.82245 2.49052 0
1.84655 2.77933 0
8.53639 2.99414 0
8.17744 2.48967 0
8.15458 2.77792 0
4.37127 4.57915 0
4.40727 4.08348 0
4.77199 0.543664 0
4.9404 1.54672 0
5.3067 0.454254 0
5.07869 0.997918 0
1.84119 1.34106 0
2.22117 1.12914 0
8.15882 1.33902 0
7.78072 1.11761 0
2.28361 0.306476 0
2.78361 0.306476 0
2.65294 0.995572 0
2.13545 0.746523 0
7.71932 0.299766 0
7.21932 0.299766 0
7.35168 0.978872 0
7.86768 0.738275 0
2.98051 0.709715 0
7.03519 0.680983 0

CELLS 392 1568
3 37 90 36 
3 90 91 36 
3 90 68 91 
3 36 91 35 
3 69 92 93 
3 92 50 93 
3 92 49 50 
3 93 50 51 
3 70 94 95 
3 94 5 95 
3 94 6 5 
3 95 5 4 
3 70 96 97 
3 96 91 97 
3 96 35 91 
3 97 91 68 
3 30 98 31 
3 98 99 31 
3 98 71 99 
3 31 99 32 
3 51 100 93 
3 100 101 93 
3 100 71 101 
3 93 101 69 
3 1 102 3 
3 102 95 3 
3 102 70 95 
3 3 95 4 
3 1 34 102 
3 34 96 102 
3 34 35 96 
3 102 96 70 
3 71 103 99 
3 103 33 99 
3 103 2 33 
3 99 33 32 
3 51 52 100 
3 52 103 100 
3 52 2 103 
3 100 103 71 
3 70 104 94 
3 104 105 94 
3 104 66 105 
3 94 105 6 
3 68 106 97 
3 106 104 97 
3 106 66 104 
3 97 104 70 
3 67 107 108 
3 107 98 108 
3 107 71 98 
3 108 98 30 
3 67 109 107 
3 109 101 107 
3 109 69 101 
3 107 101 71 
3 53 110 112 
3 110 111 112 
3 110 54 111 
3 112 111 55 
3 54 110 114 
3 110 113 114 
3 110 53 113 
3 114 113 56 
3 53 112 116 
3 112 115 116 
3 112 55 115 
3 116 115 57 
3 58 117 119 
3 117 118 119 
3 117 64 118 
3 119 118 60 
3 58 120 117 
3 120 121 117 
3 120 62 121 
3 117 121 64 
3 65 122 124 
3 122 123 124 
3 122 59 123 
3 124 123 61 
3 63 125 126 
3 125 122 126 
3 125 59 122 
3 126 122 65 
3 74 127 128 
3 127 15 128 
3 127 16 15 
3 128 15 14 
3 74 129 130 
3 129 113 130 
3 129 56 113 
3 130 113 53 
3 20 131 21 
3 131 132 21 
3 131 75 132 
3 21 132 22 
3 57 133 116 
3 133 134 116 
3 133 75 134 
3 116 134 53 
3 14 135 128 
3 135 136 128 
3 135 76 136 
3 128 136 74 
3 76 137 136 
3 137 129 136 
3 137 56 129 
3 136 129 74 
3 77 138 139 
3 138 132 139 
3 138 22 132 
3 139 132 75 
3 57 140 133 
3 140 139 133 
3 140 77 139 
3 133 139 75 
3 78 141 142 
3 141 19 142 
3 141 20 19 
3 142 19 18 
3 78 143 144 
3 143 134 144 
3 143 53 134 
3 144 134 75 
3 20 141 131 
3 141 144 131 
3 141 78 144 
3 131 144 75 
3 79 145 146 
3 145 143 146 
3 145 53 143 
3 146 143 78 
3 18 147 142 
3 147 146 142 
3 147 79 146 
3 142 146 78 
3 60 148 119 
3 148 149 119 
3 148 80 149 
3 119 149 58 
3 54 150 152 
3 150 151 152 
3 150 80 151 
3 152 151 72 
3 81 153 154 
3 153 123 154 
3 153 61 123 
3 154 123 59 
3 81 155 157 
3 155 156 157 
3 155 55 156 
3 157 156 73 
3 41 158 40 
3 158 159 40 
3 158 82 159 
3 40 159 39 
3 82 158 161 
3 158 160 161 
3 158 41 160 
3 161 160 72 
3 83 162 163 
3 162 46 163 
3 162 45 46 
3 163 46 47 
3 45 162 165 
3 162 164 165 
3 162 83 164 
3 165 164 73 
3 84 166 167 
3 166 11 167 
3 166 12 11 
3 167 11 10 
3 24 168 25 
3 168 169 25 
3 168 85 169 
3 25 169 26 
3 64 170 172 
3 170 171 172 
3 170 86 171 
3 172 171 66 
3 87 173 175 
3 173 174 175 
3 173 65 174 
3 175 174 67 
3 6 176 7 
3 176 177 7 
3 176 86 177 
3 7 177 8 
3 6 105 176 
3 105 171 176 
3 105 66 171 
3 176 171 86 
3 87 178 179 
3 178 29 179 
3 178 30 29 
3 179 29 28 
3 67 108 175 
3 108 178 175 
3 108 30 178 
3 175 178 87 
3 56 180 114 
3 180 150 114 
3 180 80 150 
3 114 150 54 
3 56 181 180 
3 181 149 180 
3 181 58 149 
3 180 149 80 
3 81 182 155 
3 182 115 155 
3 182 57 115 
3 155 115 55 
3 59 183 154 
3 183 182 154 
3 183 57 182 
3 154 182 81 
3 82 184 185 
3 184 148 185 
3 184 80 148 
3 185 148 60 
3 72 151 161 
3 151 184 161 
3 151 80 184 
3 161 184 82 
3 81 186 153 
3 186 187 153 
3 186 83 187 
3 153 187 61 
3 81 157 186 
3 157 164 186 
3 157 73 164 
3 186 164 83 
3 76 135 188 
3 135 13 188 
3 135 14 13 
3 188 13 12 
3 76 189 137 
3 189 181 137 
3 189 58 181 
3 137 181 56 
3 22 138 23 
3 138 190 23 
3 138 77 190 
3 23 190 24 
3 59 191 183 
3 191 140 183 
3 191 77 140 
3 183 140 57 
3 12 166 188 
3 166 192 188 
3 166 84 192 
3 188 192 76 
3 58 193 120 
3 193 194 120 
3 193 84 194 
3 120 194 62 
3 84 193 192 
3 193 189 192 
3 193 58 189 
3 192 189 76 
3 85 168 195 
3 168 190 195 
3 168 24 190 
3 195 190 77 
3 85 196 197 
3 196 125 197 
3 196 59 125 
3 197 125 63 
3 59 196 191 
3 196 195 191 
3 196 85 195 
3 191 195 77 
3 8 177 9 
3 177 198 9 
3 177 86 198 
3 9 198 10 
3 62 199 121 
3 199 170 121 
3 199 86 170 
3 121 170 64 
3 86 199 200 
3 199 194 200 
3 199 62 194 
3 200 194 84 
3 86 200 198 
3 200 167 198 
3 200 84 167 
3 198 167 10 
3 87 179 201 
3 179 27 201 
3 179 28 27 
3 201 27 26 
3 87 202 173 
3 202 126 173 
3 202 63 126 
3 173 126 65 
3 63 202 197 
3 202 203 197 
3 202 87 203 
3 197 203 85 
3 85 203 169 
3 203 201 169 
3 203 87 201 
3 169 201 26 
3 16 204 17 
3 204 147 17 
3 204 79 147 
3 17 147 18 
3 79 204 205 
3 204 127 205 
3 204 16 127 
3 205 127 74 
3 53 145 130 
3 145 205 130 
3 145 79 205 
3 130 205 74 
3 43 206 42 
3 206 160 42 
3 206 72 160 
3 42 160 41 
3 54 152 111 
3 152 207 111 
3 152 72 207 
3 111 207 55 
3 73 208 165 
3 208 44 165 
3 208 43 44 
3 165 44 45 
3 43 208 206 
3 208 209 206 
3 208 73 209 
3 206 209 72 
3 73 156 209 
3 156 207 209 
3 156 55 207 
3 209 207 72 
3 68 210 106 
3 210 172 106 
3 210 64 172 
3 106 172 66 
3 64 210 118 
3 210 211 118 
3 210 68 211 
3 118 211 60 
3 65 212 174 
3 212 109 174 
3 212 69 109 
3 174 109 67 
3 69 212 213 
3 212 124 213 
3 212 65 124 
3 213 124 61 
3 88 214 215 
3 214 38 215 
3 214 37 38 
3 215 38 39 
3 88 216 217 
3 216 211 217 
3 216 60 211 
3 217 211 68 
3 37 214 90 
3 214 217 90 
3 214 88 217 
3 90 217 68 
3 49 218 48 
3 218 219 48 
3 218 89 219 
3 48 219 47 
3 61 220 213 
3 220 221 213 
3 220 89 221 
3 213 221 69 
3 89 218 221 
3 218 92 221 
3 218 49 92 
3 221 92 69 
3 82 222 159 
3 222 215 159 
3 222 88 215 
3 159 215 39 
3 82 185 222 
3 185 216 222 
3 185 60 216 
3 222 216 88 
3 89 223 219 
3 223 163 219 
3 223 83 163 
3 219 163 47 
3 61 187 220 
3 187 223 220 
3 187 83 223 
3 220 223 89 

CELL_TYPES 392
5 
5 
5 
5 
5 
5 
5 
5 
5 
5 
5 
5 
5 
5 
5 
5 
5 
5 
5 
5 
5 
5 
5 
5 
5 
5 
5 
5 
5 
5 
5 
5 
5 
5 
5 
5 
5 
5 
5 
5 
5 
5 
5 
5 
5 
5 
5 
5 
5 
5 
5 
5 
5 
5 
5 
5 
5 
5 
5 
5 
5 
5 
5 
5 
5 
5 
5 
5 
5 
5 
5 
5 
5 
5 
5 
5 
5 
5 
5 
5 
5 
5 
5 
5 
5 
5 
5 
5 
5 
5 
5 
5 
5 
5 
5 
5 
5 
5 
5 
5 
5 
5 
5 
5 
5 
5 
5 
5 
5 
5 
5 
5 
5 
5 
5 
5 
5 
5 
5 
5 
5 
5 
5 
5 
5 
5 
5 
5 
5 
5 
5 
5 
5 
5 
5 
5 
5 
5 
5 
5 
5 
5 
5 
5 
5 
5 
5 
5 
5 
5 
5 
5 
5 
5 
5 
5 
5 
5 
5 
5 
5 
5 
5 
5 
5 
5 
5 
5 
5 
5 
5 
5 
5 
5 
5 
5 
5 
5 
5 
5 
5 
5 
5 
5 
5 
5 
5 
5 
5 
5 
5 
5 
5 
5 
5 
5 
5 
5 
5 
5 
5 
5 
5 
5 
5 
5 
5 
5 
5 
5 
5 
5 
5 
5 
5 
5 
5 
5 
5 
5 
5 
5 
5 
5 
5 
5 
5 
5 
5 
5 
5 
5 
5 
5 
5 
5 
5 
5 
5 
5 
5 
5 
5 
5 
5 
5 
5 
5 
5 
5 
5 
5 
5 
5 
5 
5 
5 
5 
5 
5 
5 
5 
5 
5 
5 
5 
5 
5 
5 
5 
5 
5 
5 
5 
5 
5 
5 
5 
5 
5 
5 
5 
5 
5 
5 
5 
5 
5 
5 
5 
5 
5 
5 
5 
5 
5 
5 
5 
5 
5 
5 
5 
5 
5 
5 
5 
5 
5 
5 
5 
5 
5 
5 
5 
5 
5 
5 
5 
5 
5 
5 
5 
5 
5 
5 
5 
5 
5 
5 
5 
5 
5 
5 
5 
5 
5 
5 
5 
5 
5 
5 
5 
5 
5 
5 
5 
5 
5 
5 
5 
5 
5 
5 
5 
5 
5 
5 
5 
5 
5 
5 
5 
5 
5 
5 
5 
5 
5 
5 
5 
5 
5 
5 
5 
5 
5 
5 
5 
5 
5 
5 
5 
5 
5 
5 
5 
5 
5 
5 
5 
5 
5 
POINT_DATA 224
SCALARS GMDS_ID int 1
LOOKUP_TABLE default
0 1 2 3 4 5 6 7 8 9 10 11 12 13 14 15 16 17 18 19 20 21 22 23 24 25 26 27 28 29 30 31 32 33 34 35 36 37 38 39 40 41 42 43 44 45 46 47 48 49 50 51 52 53 54 55 56 57 58 59 60 61 62 63 64 65 66 67 68 69 70 71 72 73 74 75 76 77 78 79 80 81 82 83 84 85 86 87 88 89 90 91 92 93 94 95 96 97 98 99 100 101 102 103 104 105 106 107 108 109 110 111 112 113 114 115 116 117 118 119 120 121 122 123 124 125 126 127 128 129 130 131 132 133 134 135 136 137 138 139 140 141 142 143 144 145 146 147 148 149 150 151 152 153 154 155 156 157 158 159 160 161 162 163 164 165 166 167 168 169 170 171 172 173 174 175 176 177 178 179 180 181 182 183 184 185 186 187 188 189 190 191 192 193 194 195 196 197 198 199 200 201 202 203 204 205 206 207 208 209 210 211 212 213 214 215 216 217 218 219 220 221 222 223 
SCALARS angle float 1
LOOKUP_TABLE default
0 0 0 5.89049 5.49779 5.10509 4.71239 4.31969 3.92699 3.53429 3.14159 2.74889 2.35619 1.9635 1.5708 1.1781 0.785398 0.392699 0 5.89049 5.49779 5.10509 4.71239 4.31969 3.92699 3.53429 3.14159 2.74889 2.35619 1.9635 1.5708 1.1781 0.785398 0.392699 0 0 0 0 0 0 0 0 0 0 0 0 0 0 0 0 0 0 0 0.118569 0.155369 0.0475186 0.526688 6.07526 0.655513 6.08043 6.27004 0.186078 1.56282 2.48167 5.9559 0.966795 5.41062 1.15744 6.04687 0.37356 5.77115 0.627511 0.0356245 0.019571 0.769778 5.59513 1.65733 4.43111 6.10048 0.279291 0.126304 0.0310013 0.0143639 0.0412954 2.52788 3.35594 4.23231 2.27848 6.2468 0.0890724 6.19542 6.12346 0.131434 0.229956 5.2926 5.61254 6.12579 5.91218 1.10677 0.706076 0.287593 0.537881 6.07322 0.191136 5.61586 4.9528 5.81475 0.858902 1.45093 0.716481 0.183422 0.0923903 0.0725658 0.333672 0.287434 6.27345 6.21837 0.174213 6.18131 0.146231 0.879094 6.0851 0.656527 0.186793 0.42239 1.2395 1.52444 0.802559 1.34477 0.721539 0.37991 5.52476 4.8894 5.8102 6.12077 1.71216 1.25039 1.05594 4.40427 5.02037 5.42256 5.6986 6.27666 0.00291192 5.86829 0.203923 0.0800883 0.154856 0.0767461 0.265097 0.153681 0.0671617 0.0776869 0.0838664 0.00816071 0.0222458 0.0325826 0.0286105 0.00739468 0.000359871 0.011966 0.029563 0.0141657 0.0265513 0.0232539 0.00845978 2.38891 2.9609 3.75656 3.19397 5.49949 5.22522 5.66051 1.77298 1.1095 1.6256 4.85387 3.87525 1.8183 2.35733 0.291348 0.639147 6.24217 5.98307 0.0514142 0.00923217 0.0468926 0.0884753 2.09701 1.37275 4.02008 4.72689 2.01017 1.62409 2.41438 3.93154 3.66249 3.0682 3.14255 3.63213 2.96421 2.84249 2.37359 2.78951 0.58137 0.512171 0.0135866 0.0524746 0.00999915 0.0259602 5.96529 6.14768 0.609572 0.29786 6.25064 6.27318 6.24254 6.17801 0.0560179 0.0313576 0.143779 0.188542 6.27559 0.0629789 
VECTORS cross_X float
1 0 0 1 0 0 1 0 0 0.0980171 0.995185 0 0.19509 0.980785 0 0.290285 0.95694 0 0.382683 0.92388 0 0.471397 0.881921 0 0.55557 0.83147 0 0.634393 0.77301 0 0.707107 0.707107 0 0.77301 0.634393 0 0.83147 0.55557 0 0.881921 0.471397 0 0.92388 0.382683 0 0.95694 0.290285 0 0.980785 0.19509 0 0.995185 0.0980171 0 1 0 0 0.0980171 0.995185 0 0.19509 0.980785 0 0.290285 0.95694 0 0.382683 0.92388 0 0.471397 0.881921 0 0.55557 0.83147 0 0.634393 0.77301 0 0.707107 0.707107 0 0.77301 0.634393 0 0.83147 0.55557 0 0.881921 0.471397 0 0.92388 0.382683 0 0.95694 0.290285 0 0.980785 0.19509 0 0.995185 0.0980171 0 1 0 0 1 0 0 1 0 0 1 0 0 1 0 0 1 0 0 1 0 0 1 0 0 1 0 0 1 0 0 1 0 0 1 0 0 1 0 0 1 0 0 1 0 0 1 0 0 1 0 0 1 0 0 1 0 0 0.999561 0.0296378 0 0.999246 0.0388326 0 0.999929 0.0118794 0 0.991344 0.131292 0 0.0519581 0.998649 0 0.986602 0.163146 0 0.0506662 0.998716 0 0.00328744 0.999995 0 0.998918 0.0465026 0 0.924641 0.380841 0 0.813636 0.581375 0 0.0817309 0.996654 0 0.970933 0.239352 0 0.216415 0.976301 0 0.958427 0.285339 0 0.0590454 0.998255 0 0.995642 0.0932543 0 0.12766 0.991818 0 0.98772 0.156235 0 0.99996 0.00890602 0 0.999988 0.00489273 0 0.98154 0.191259 0 0.171166 0.985242 0 0.915386 0.402578 0 0.44665 0.894709 0 0.0456606 0.998957 0 0.997563 0.069766 0 0.999502 0.0315708 0 0.99997 0.00775024 0 0.999994 0.00359098 0 0.999947 0.0103237 0 0.806865 0.590735 0 0.668218 0.743966 0 0.490547 0.871415 0 0.842106 0.539313 0 0.00909503 0.999959 0 0.999752 0.0222663 0 0.0219407 0.999759 0 0.0399214 0.999203 0 0.99946 0.0328527 0 0.998348 0.0574572 0 0.245124 0.969492 0 0.166876 0.985978 0 0.0393394 0.999226 0 0.0926195 0.995702 0 0.961964 0.273176 0 0.984461 0.175604 0 0.997416 0.0718364 0 0.990972 0.134065 0 0.0524685 0.998623 0 0.998859 0.0477657 0 0.166058 0.986116 0 0.326497 0.945198 0 0.116842 0.99315 0 0.977035 0.213079 0 0.93493 0.354831 0 0.984001 0.178164 0 0.998949 0.0458395 0 0.999733 0.0230955 0 0.999835 0.0181405 0 0.996523 0.0833212 0 0.997419 0.0717966 0 0.00243408 0.999997 0 0.0162031 0.999869 0 0.999052 0.0435395 0 0.0254666 0.999676 0 0.999332 0.0365497 0 0.975947 0.218009 0 0.0495004 0.998774 0 0.986561 0.163396 0 0.99891 0.0466814 0 0.99443 0.105401 0 0.952372 0.30494 0 0.928253 0.37195 0 0.979939 0.199296 0 0.944018 0.329894 0 0.983775 0.179408 0 0.995493 0.0948349 0 0.188473 0.982078 0 0.341437 0.939905 0 0.117972 0.993017 0 0.0405937 0.999176 0 0.909781 0.415088 0 0.951538 0.307532 0 0.965358 0.260929 0 0.452644 0.891692 0 0.310485 0.950578 0 0.2135 0.976943 0 0.145627 0.98934 0 0.00163181 0.999999 0 1 0.000727981 0 0.103538 0.994626 0 0.998701 0.0509586 0 0.9998 0.0200207 0 0.999251 0.0387044 0 0.999816 0.0191853 0 0.997805 0.0662258 0 0.999262 0.0384107 0 0.999859 0.0167896 0 0.999811 0.0194205 0 0.99978 0.0209651 0 0.999998 0.00204018 0 0.999985 0.00556142 0 0.999967 0.00814556 0 0.999974 0.00715256 0 0.999998 0.00184867 0 1 8.99679e-05 0 0.999996 0.0029915 0 0.999973 0.00739068 0 0.999994 0.00354142 0 0.999978 0.00663777 0 0.999983 0.00581344 0 0.999998 0.00211494 0 0.826897 0.562353 0 0.738316 0.674455 0 0.590483 0.80705 0 0.697788 0.716304 0 0.194673 0.980868 0 0.261419 0.965225 0 0.15504 0.987908 0 0.903364 0.428874 0 0.961777 0.273832 0 0.91855 0.395304 0 0.349773 0.936835 0 0.566278 0.824214 0 0.898448 0.43908 0 0.831312 0.555807 0 0.997349 0.0727725 0 0.987261 0.159108 0 0.0102526 0.999947 0 0.0749597 0.997187 0 0.999917 0.0128532 0 0.999997 0.00230804 0 0.999931 0.0117229 0 0.999755 0.022117 0 0.865699 0.500566 0 0.941687 0.336489 0 0.536072 0.844172 0 0.379331 0.925261 0 0.876361 0.481656 0 0.918699 0.394959 0 0.8233 0.567607 0 0.554625 0.832101 0 0.609298 0.792941 0 0.719962 0.694014 0 0.706937 0.707277 0 0.615297 0.788295 0 0.737758 0.675065 0 0.757955 0.652306 0 0.829045 0.559182 0 0.766528 0.642211 0 0.989456 0.144831 0 0.991814 0.127693 0 0.999994 0.00339666 0 0.999914 0.0131183 0 0.999997 0.00249978 0 0.999979 0.00649001 0 0.079391 0.996844 0 0.0338694 0.999426 0 0.988411 0.151804 0 0.997229 0.0743963 0 0.00813562 0.999967 0 0.0025012 0.999997 0 0.01016 0.999948 0 0.0262903 0.999654 0 0.999902 0.014004 0 0.999969 0.00783933 0 0.999354 0.035937 0 0.998889 0.047118 0 0.00189991 0.999998 0 0.999876 0.0157441 0 
VECTORS VY float
6.12323e-17 1 0 6.12323e-17 1 0 6.12323e-17 1 0 -0.995185 0.0980171 0 -0.980785 0.19509 0 -0.95694 0.290285 0 -0.92388 0.382683 0 -0.881921 0.471397 0 -0.83147 0.55557 0 -0.77301 0.634393 0 -0.707107 0.707107 0 -0.634393 0.77301 0 -0.55557 0.83147 0 -0.471397 0.881921 0 -0.382683 0.92388 0 -0.290285 0.95694 0 -0.19509 0.980785 0 -0.0980171 0.995185 0 6.12323e-17 1 0 -0.995185 0.0980171 0 -0.980785 0.19509 0 -0.95694 0.290285 0 -0.92388 0.382683 0 -0.881921 0.471397 0 -0.83147 0.55557 0 -0.77301 0.634393 0 -0.707107 0.707107 0 -0.634393 0.77301 0 -0.55557 0.83147 0 -0.471397 0.881921 0 -0.382683 0.92388 0 -0.290285 0.95694 0 -0.19509 0.980785 0 -0.0980171 0.995185 0 6.12323e-17 1 0 6.12323e-17 1 0 6.12323e-17 1 0 6.12323e-17 1 0 6.12323e-17 1 0 6.12323e-17 1 0 6.12323e-17 1 0 6.12323e-17 1 0 6.12323e-17 1 0 6.12323e-17 1 0 6.12323e-17 1 0 6.12323e-17 1 0 6.12323e-17 1 0 6.12323e-17 1 0 6.12323e-17 1 0 6.12323e-17 1 0 6.12323e-17 1 0 6.12323e-17 1 0 6.12323e-17 1 0 -0.0296378 0.999561 0 -0.0388326 0.999246 0 -0.0118794 0.999929 0 -0.131292 0.991344 0 -0.998649 0.0519581 0 -0.163146 0.986602 0 -0.998716 0.0506662 0 -0.999995 0.00328744 0 -0.0465026 0.998918 0 -0.380841 0.924641 0 -0.581375 0.813636 0 -0.996654 0.0817309 0 -0.239352 0.970933 0 -0.976301 0.216415 0 -0.285339 0.958427 0 -0.998255 0.0590454 0 -0.0932543 0.995642 0 -0.991818 0.12766 0 -0.156235 0.98772 0 -0.00890602 0.99996 0 -0.00489273 0.999988 0 -0.191259 0.98154 0 -0.985242 0.171166 0 -0.402578 0.915386 0 -0.894709 0.44665 0 -0.998957 0.0456606 0 -0.069766 0.997563 0 -0.0315708 0.999502 0 -0.00775024 0.99997 0 -0.00359098 0.999994 0 -0.0103237 0.999947 0 -0.590735 0.806865 0 -0.743966 0.668218 0 -0.871415 0.490547 0 -0.539313 0.842106 0 -0.999959 0.00909503 0 -0.0222663 0.999752 0 -0.999759 0.0219407 0 -0.999203 0.0399214 0 -0.0328527 0.99946 0 -0.0574572 0.998348 0 -0.969492 0.245124 0 -0.985978 0.166876 0 -0.999226 0.0393394 0 -0.995702 0.0926195 0 -0.273176 0.961964 0 -0.175604 0.984461 0 -0.0718364 0.997416 0 -0.134065 0.990972 0 -0.998623 0.0524685 0 -0.0477657 0.998859 0 -0.986116 0.166058 0 -0.945198 0.326497 0 -0.99315 0.116842 0 -0.213079 0.977035 0 -0.354831 0.93493 0 -0.178164 0.984001 0 -0.0458395 0.998949 0 -0.0230955 0.999733 0 -0.0181405 0.999835 0 -0.0833212 0.996523 0 -0.0717966 0.997419 0 -0.999997 0.00243408 0 -0.999869 0.0162031 0 -0.0435395 0.999052 0 -0.999676 0.0254666 0 -0.0365497 0.999332 0 -0.218009 0.975947 0 -0.998774 0.0495004 0 -0.163396 0.986561 0 -0.0466814 0.99891 0 -0.105401 0.99443 0 -0.30494 0.952372 0 -0.37195 0.928253 0 -0.199296 0.979939 0 -0.329894 0.944018 0 -0.179408 0.983775 0 -0.0948349 0.995493 0 -0.982078 0.188473 0 -0.939905 0.341437 0 -0.993017 0.117972 0 -0.999176 0.0405937 0 -0.415088 0.909781 0 -0.307532 0.951538 0 -0.260929 0.965358 0 -0.891692 0.452644 0 -0.950578 0.310485 0 -0.976943 0.2135 0 -0.98934 0.145627 0 -0.999999 0.00163181 0 -0.000727981 1 0 -0.994626 0.103538 0 -0.0509586 0.998701 0 -0.0200207 0.9998 0 -0.0387044 0.999251 0 -0.0191853 0.999816 0 -0.0662258 0.997805 0 -0.0384107 0.999262 0 -0.0167896 0.999859 0 -0.0194205 0.999811 0 -0.0209651 0.99978 0 -0.00204018 0.999998 0 -0.00556142 0.999985 0 -0.00814556 0.999967 0 -0.00715256 0.999974 0 -0.00184867 0.999998 0 -8.99679e-05 1 0 -0.0029915 0.999996 0 -0.00739068 0.999973 0 -0.00354142 0.999994 0 -0.00663777 0.999978 0 -0.00581344 0.999983 0 -0.00211494 0.999998 0 -0.562353 0.826897 0 -0.674455 0.738316 0 -0.80705 0.590483 0 -0.716304 0.697788 0 -0.980868 0.194673 0 -0.965225 0.261419 0 -0.987908 0.15504 0 -0.428874 0.903364 0 -0.273832 0.961777 0 -0.395304 0.91855 0 -0.936835 0.349773 0 -0.824214 0.566278 0 -0.43908 0.898448 0 -0.555807 0.831312 0 -0.0727725 0.997349 0 -0.159108 0.987261 0 -0.999947 0.0102526 0 -0.997187 0.0749597 0 -0.0128532 0.999917 0 -0.00230804 0.999997 0 -0.0117229 0.999931 0 -0.022117 0.999755 0 -0.500566 0.865699 0 -0.336489 0.941687 0 -0.844172 0.536072 0 -0.925261 0.379331 0 -0.481656 0.876361 0 -0.394959 0.918699 0 -0.567607 0.8233 0 -0.832101 0.554625 0 -0.792941 0.609298 0 -0.694014 0.719962 0 -0.707277 0.706937 0 -0.788295 0.615297 0 -0.675065 0.737758 0 -0.652306 0.757955 0 -0.559182 0.829045 0 -0.642211 0.766528 0 -0.144831 0.989456 0 -0.127693 0.991814 0 -0.00339666 0.999994 0 -0.0131183 0.999914 0 -0.00249978 0.999997 0 -0.00649001 0.999979 0 -0.996844 0.079391 0 -0.999426 0.0338694 0 -0.151804 0.988411 0 -0.0743963 0.997229 0 -0.999967 0.00813562 0 -0.999997 0.0025012 0 -0.999948 0.01016 0 -0.999654 0.0262903 0 -0.014004 0.999902 0 -0.00783933 0.999969 0 -0.035937 0.999354 0 -0.047118 0.998889 0 -0.999998 0.00189991 0 -0.0157441 0.999876 0 
VECTORS VXM float
-1 1.22465e-16 0 -1 1.22465e-16 0 -1 1.22465e-16 0 -0.0980171 -0.995185 0 -0.19509 -0.980785 0 -0.290285 -0.95694 0 -0.382683 -0.92388 0 -0.471397 -0.881921 0 -0.55557 -0.83147 0 -0.634393 -0.77301 0 -0.707107 -0.707107 0 -0.77301 -0.634393 0 -0.83147 -0.55557 0 -0.881921 -0.471397 0 -0.92388 -0.382683 0 -0.95694 -0.290285 0 -0.980785 -0.19509 0 -0.995185 -0.0980171 0 -1 1.22465e-16 0 -0.0980171 -0.995185 0 -0.19509 -0.980785 0 -0.290285 -0.95694 0 -0.382683 -0.92388 0 -0.471397 -0.881921 0 -0.55557 -0.83147 0 -0.634393 -0.77301 0 -0.707107 -0.707107 0 -0.77301 -0.634393 0 -0.83147 -0.55557 0 -0.881921 -0.471397 0 -0.92388 -0.382683 0 -0.95694 -0.290285 0 -0.980785 -0.19509 0 -0.995185 -0.0980171 0 -1 1.22465e-16 0 -1 1.22465e-16 0 -1 1.22465e-16 0 -1 1.22465e-16 0 -1 1.22465e-16 0 -1 1.22465e-16 0 -1 1.22465e-16 0 -1 1.22465e-16 0 -1 1.22465e-16 0 -1 1.22465e-16 0 -1 1.22465e-16 0 -1 1.22465e-16 0 -1 1.22465e-16 0 -1 1.22465e-16 0 -1 1.22465e-16 0 -1 1.22465e-16 0 -1 1.22465e-16 0 -1 1.22465e-16 0 -1 1.22465e-16 0 -0.999561 -0.0296378 0 -0.999246 -0.0388326 0 -0.999929 -0.0118794 0 -0.991344 -0.131292 0 -0.0519581 -0.998649 0 -0.986602 -0.163146 0 -0.0506662 -0.998716 0 -0.00328744 -0.999995 0 -0.998918 -0.0465026 0 -0.924641 -0.380841 0 -0.813636 -0.581375 0 -0.0817309 -0.996654 0 -0.970933 -0.239352 0 -0.216415 -0.976301 0 -0.958427 -0.285339 0 -0.0590454 -0.998255 0 -0.995642 -0.0932543 0 -0.12766 -0.991818 0 -0.98772 -0.156235 0 -0.99996 -0.00890602 0 -0.999988 -0.00489273 0 -0.98154 -0.191259 0 -0.171166 -0.985242 0 -0.915386 -0.402578 0 -0.44665 -0.894709 0 -0.0456606 -0.998957 0 -0.997563 -0.069766 0 -0.999502 -0.0315708 0 -0.99997 -0.00775024 0 -0.999994 -0.00359098 0 -0.999947 -0.0103237 0 -0.806865 -0.590735 0 -0.668218 -0.743966 0 -0.490547 -0.871415 0 -0.842106 -0.539313 0 -0.00909503 -0.999959 0 -0.999752 -0.0222663 0 -0.0219407 -0.999759 0 -0.0399214 -0.999203 0 -0.99946 -0.0328527 0 -0.998348 -0.0574572 0 -0.245124 -0.969492 0 -0.166876 -0.985978 0 -0.0393394 -0.999226 0 -0.0926195 -0.995702 0 -0.961964 -0.273176 0 -0.984461 -0.175604 0 -0.997416 -0.0718364 0 -0.990972 -0.134065 0 -0.0524685 -0.998623 0 -0.998859 -0.0477657 0 -0.166058 -0.986116 0 -0.326497 -0.945198 0 -0.116842 -0.99315 0 -0.977035 -0.213079 0 -0.93493 -0.354831 0 -0.984001 -0.178164 0 -0.998949 -0.0458395 0 -0.999733 -0.0230955 0 -0.999835 -0.0181405 0 -0.996523 -0.0833212 0 -0.997419 -0.0717966 0 -0.00243408 -0.999997 0 -0.0162031 -0.999869 0 -0.999052 -0.0435395 0 -0.0254666 -0.999676 0 -0.999332 -0.0365497 0 -0.975947 -0.218009 0 -0.0495004 -0.998774 0 -0.986561 -0.163396 0 -0.99891 -0.0466814 0 -0.99443 -0.105401 0 -0.952372 -0.30494 0 -0.928253 -0.37195 0 -0.979939 -0.199296 0 -0.944018 -0.329894 0 -0.983775 -0.179408 0 -0.995493 -0.0948349 0 -0.188473 -0.982078 0 -0.341437 -0.939905 0 -0.117972 -0.993017 0 -0.0405937 -0.999176 0 -0.909781 -0.415088 0 -0.951538 -0.307532 0 -0.965358 -0.260929 0 -0.452644 -0.891692 0 -0.310485 -0.950578 0 -0.2135 -0.976943 0 -0.145627 -0.98934 0 -0.00163181 -0.999999 0 -1 -0.000727981 0 -0.103538 -0.994626 0 -0.998701 -0.0509586 0 -0.9998 -0.0200207 0 -0.999251 -0.0387044 0 -0.999816 -0.0191853 0 -0.997805 -0.0662258 0 -0.999262 -0.0384107 0 -0.999859 -0.0167896 0 -0.999811 -0.0194205 0 -0.99978 -0.0209651 0 -0.999998 -0.00204018 0 -0.999985 -0.00556142 0 -0.999967 -0.00814556 0 -0.999974 -0.00715256 0 -0.999998 -0.00184867 0 -1 -8.99679e-05 0 -0.999996 -0.0029915 0 -0.999973 -0.00739068 0 -0.999994 -0.00354142 0 -0.999978 -0.00663777 0 -0.999983 -0.00581344 0 -0.999998 -0.00211494 0 -0.826897 -0.562353 0 -0.738316 -0.674455 0 -0.590483 -0.80705 0 -0.697788 -0.716304 0 -0.194673 -0.980868 0 -0.261419 -0.965225 0 -0.15504 -0.987908 0 -0.903364 -0.428874 0 -0.961777 -0.273832 0 -0.91855 -0.395304 0 -0.349773 -0.936835 0 -0.566278 -0.824214 0 -0.898448 -0.43908 0 -0.831312 -0.555807 0 -0.997349 -0.0727725 0 -0.987261 -0.159108 0 -0.0102526 -0.999947 0 -0.0749597 -0.997187 0 -0.999917 -0.0128532 0 -0.999997 -0.00230804 0 -0.999931 -0.0117229 0 -0.999755 -0.022117 0 -0.865699 -0.500566 0 -0.941687 -0.336489 0 -0.536072 -0.844172 0 -0.379331 -0.925261 0 -0.876361 -0.481656 0 -0.918699 -0.394959 0 -0.8233 -0.567607 0 -0.554625 -0.832101 0 -0.609298 -0.792941 0 -0.719962 -0.694014 0 -0.706937 -0.707277 0 -0.615297 -0.788295 0 -0.737758 -0.675065 0 -0.757955 -0.652306 0 -0.829045 -0.559182 0 -0.766528 -0.642211 0 -0.989456 -0.144831 0 -0.991814 -0.127693 0 -0.999994 -0.00339666 0 -0.999914 -0.0131183 0 -0.999997 -0.00249978 0 -0.999979 -0.00649001 0 -0.079391 -0.996844 0 -0.0338694 -0.999426 0 -0.988411 -0.151804 0 -0.997229 -0.0743963 0 -0.00813562 -0.999967 0 -0.0025012 -0.999997 0 -0.01016 -0.999948 0 -0.0262903 -0.999654 0 -0.999902 -0.014004 0 -0.999969 -0.00783933 0 -0.999354 -0.035937 0 -0.998889 -0.047118 0 -0.00189991 -0.999998 0 -0.999876 -0.0157441 0 
VECTORS VYM float