# vtk DataFile Version 3.0
Generated by GMDS VTK Writer

ASCII
DATASET UNSTRUCTURED_GRID
POINTS 435 float
0 0 0
10 0 0
10 5 0
0 5 0
2.5 2.5 0
1.5 2.5 0
3.5 2.5 0
5 0 0
10 2.5 0
0 4.64286 0
0 4.28571 0
0 3.92857 0
0 3.57143 0
0 3.21429 0
0 2.85714 0
0 2.5 0
0 2.14286 0
0 1.78571 0
0 1.42857 0
0 1.07143 0
0 0.714286 0
0 0.357143 0
0.37037 5 0
0.740741 5 0
1.11111 5 0
1.48148 5 0
1.85185 5 0
2.22222 5 0
2.59259 5 0
2.96296 5 0
3.33333 5 0
3.7037 5 0
4.07407 5 0
4.44444 5 0
4.81481 5 0
5.18519 5 0
5.55556 5 0
5.92593 5 0
6.2963 5 0
6.66667 5 0
7.03704 5 0
7.40741 5 0
7.77778 5 0
8.14815 5 0
8.51852 5 0
8.88889 5 0
9.25926 5 0
9.62963 5 0
1.56031 2.15798 0
1.73396 1.85721 0
2 1.63397 0
2.32635 1.51519 0
2.67365 1.51519 0
3 1.63397 0
3.26604 1.85721 0
3.43969 2.15798 0
3.43969 2.84202 0
3.26604 3.14279 0
3 3.36603 0
2.67365 3.48481 0
2.32635 3.48481 0
2 3.36603 0
1.73396 3.14279 0
1.56031 2.84202 0
9.62164 2.49283 0
9.24382 2.47124 0
8.86713 2.43498 0
8.4922 2.38362 0
8.11978 2.3165 0
7.75074 2.23276 0
7.38621 2.1312 0
7.02764 2.01029 0
6.67702 1.86801 0
6.33715 1.70173 0
6.01215 1.50807 0
5.70834 1.28273 0
5.43572 1.0207 0
5.2103 0.717416 0
5.05594 0.372922 0
0.357143 0 0
0.714286 0 0
1.07143 0 0
1.42857 0 0
1.78571 0 0
2.14286 0 0
2.5 0 0
2.85714 0 0
3.21429 0 0
3.57143 0 0
3.92857 0 0
4.28571 0 0
4.64286 0 0
10 2.85714 0
10 3.21429 0
10 3.57143 0
10 3.92857 0
10 4.28571 0
10 4.64286 0
5.26516 3.19913 0
6.71503 3.46213 0
8.03146 3.67476 0
4.67366 2.04162 0
4.20308 3.82717 0
4.12678 1.09727 0
1.01999 1.11434 0
1.02351 3.98755 0
9.04765 3.97236 0
5.85251 3.93381 0
6.1415 2.74702 0
4.35854 2.90721 0
3.42623 4.13006 0
3.28433 0.840225 0
1.87912 0.82151 0
7.30942 4.10782 0
1.84182 4.14776 0
0.788586 1.82537 0
0.734707 3.13408 0
5.01249 4.17333 0
7.45318 3.04066 0
5.50402 2.15091 0
8.74038 3.20202 0
2.78042 4.33296 0
6.55848 4.24304 0
2.59649 0.692958 0
4.80501 1.27932 0
4.07223 1.77819 0
8.35271 4.30612 0
0.623308 2.48732 0
6.83032 2.69484 0
5.8985 3.33237 0
9.3508 3.41241 0
8.14338 2.95084 0
3.8696 3.29074 0
4.49223 0.576866 0
0.637207 0.61967 0
4.9104 2.59957 0
0.63516 4.38416 0
3.95341 4.40644 0
4.04455 2.35443 0
4.68935 3.40048 0
3.80558 0.598521 0
3.57084 1.32929 0
9.44546 4.44957 0
1.38476 0.546533 0
0.557249 1.32685 0
1.5883 1.2476 0
1.38414 4.42905 0
0.5324 3.6858 0
1.50081 3.61689 0
5.24647 1.64363 0
7.79455 4.44167 0
5.34452 3.72103 0
5.49356 4.43505 0
5.54746 2.69305 0
4.53121 4.44062 0
7.29126 3.56236 0
6.04731 4.46423 0
3.46987 3.61635 0
6.03202 2.15097 0
2.9965 3.86412 0
1.26906 1.66787 0
9.49313 3.88697 0
8.83378 4.48848 0
8.57935 3.78652 0
3.06825 4.50666 0
1.10354 2.20365 0
1.09921 2.75374 0
6.30988 3.79651 0
2.26887 4.46226 0
2.87521 1.08381 0
6.34838 3.14539 0
2.93868 0.447208 0
1.25239 3.30466 0
6.9575 4.50303 0
2.30044 3.97207 0
9.14664 2.95466 0
2.37447 0.988732 0
2.18956 0.463225 0
3.86483 2.90375 0
6.50526 2.32748 0
0.482099 2.08652 0
0.452821 2.89301 0
7.29304 2.59526 0
4.28082 1.4541 0
6.89695 3.92124 0
3.62607 4.57117 0
3.73384 3.85939 0
6.99954 3.12389 0
7.79731 2.76621 0
4.70652 3.87212 0
4.51241 2.42803 0
9.64149 3.0026 0
7.74089 3.98453 0
3.48751 0.399711 0
8.52946 2.834 0
4.76971 0.87114 0
1.75832 0.418607 0
1.00882 0.411516 0
7.65682 3.39958 0
4.99244 4.71207 0
5.09079 2.22945 0
1.92745 3.67363 0
1.7644 4.58507 0
0.995943 3.52419 0
0.986658 4.64744 0
4.26738 3.41118 0
3.63613 0.952481 0
9.00608 3.58382 0
0.932784 1.47377 0
0.417279 1.71627 0
0.411816 3.28217 0
0.365095 0.944009 0
5.61361 1.72566 0
0.36244 4.05879 0
7.41962 4.57875 0
4.74761 2.9803 0
3.63298 1.74813 0
8.3347 3.34702 0
1.50471 4.02677 0
1.93846 1.25962 0
4.1315 0.359015 0
6.48328 4.70081 0
3.19936 1.31684 0
3.82818 2.09922 0
4.27887 2.07908 0
2.72732 4.63253 0
4.48849 1.15249 0
1.52281 0.876278 0
3.92418 1.44108 0
4.86322 1.67631 0
2.63987 0.332989 0
8.13134 4.58024 0
5.1484 1.29276 0
2.59592 3.80579 0
5.59912 3.0135 0
5.07671 3.48718 0
5.35133 4.10896 0
0.359427 0.359427 0
4.25944 4.64212 0
4.13969 0.733603 0
4.30239 4.22454 0
5.70654 3.64359 0
8.10967 4.02571 0
5.74457 2.37254 0
8.65872 4.05974 0
0.350947 4.65081 0
6.49481 2.68718 0
8.50234 4.63712 0
0.263163 2.60707 0
6.18805 4.09772 0
9.0995 4.68118 0
7.01303 2.39345 0
5.74875 4.66856 0
0.732248 0.934597 0
4.70536 0.346011 0
5.18958 2.88388 0
9.68806 4.13565 0
0.732988 4.06829 0
9.64111 3.59205 0
6.2178 3.45713 0
3.9691 3.59614 0
8.25433 2.60708 0
9.6611 4.66202 0
2.5729 1.24518 0
1.08877 0.795229 0
4.47302 1.78285 0
3.92334 4.72395 0
3.106 4.15962 0
3.60378 3.11676 0
1.27253 1.34702 0
5.30082 2.48409 0
5.93503 2.98346 0
1.00318 4.26975 0
5.03449 3.83558 0
7.76912 3.05718 0
0.81772 2.15057 0
0.802943 2.80895 0
2.95787 0.807501 0
1.28991 1.99177 0
5.48386 3.39727 0
9.11023 4.30992 0
3.75909 0.266987 0
1.27648 0.256565 0
1.52508 1.56819 0
8.86959 2.76867 0
6.69654 3.03164 0
6.35779 2.05705 0
4.11866 3.06597 0
5.36429 4.70198 0
0.685246 0.31029 0
0.255312 1.25 0
5.99278 1.84268 0
0.241036 3.74911 0
8.02547 3.33809 0
3.81554 2.57739 0
9.06524 3.28299 0
3.70689 4.22619 0
5.76408 4.25157 0
4.63553 4.18516 0
2.09137 4.7032 0
3.33693 1.57024 0
7.54937 3.74013 0
5.26033 1.95099 0
1.2963 4.742 0
2.21118 0.722271 0
0.294443 0.644792 0
3.18782 3.61175 0
9.45539 2.80132 0
0.665535 4.69737 0
0.293152 4.35715 0
4.59392 2.7312 0
4.17304 2.68364 0
1.19373 3.76328 0
4.47188 3.17709 0
1.21293 2.49273 0
9.69392 3.29432 0
6.02888 3.71019 0
4.6355 4.7269 0
1.72826 3.49034 0
3.52179 0.677203 0
1.30238 2.98716 0
6.5704 3.90256 0
4.52566 3.68726 0
3.38823 1.10412 0
4.80375 2.30302 0
9.2746 3.6785 0
7.66826 4.74688 0
2.17173 4.21629 0
4.43717 0.259107 0
6.87288 4.22122 0
2.41638 4.71823 0
2.02386 0.274691 0
7.11213 2.80748 0
6.83721 4.73259 0
3.31902 3.86224 0
6.77065 2.17579 0
5.16976 4.42582 0
6.15908 2.43159 0
0.754316 3.45078 0
1.65093 4.3198 0
2.90936 1.34254 0
0.673975 1.58556 0
0.239688 2.29788 0
5.4274 1.38848 0
7.04618 3.50226 0
9.35691 4.1509 0
7.20431 3.81165 0
0.857844 3.75642 0
6.12153 4.74721 0
7.6189 2.50808 0
7.2738 3.28728 0
5.07708 1.01026 0
2.32262 0.261741 0
4.84671 0.576871 0
3.99111 4.1062 0
4.99368 3.19019 0
0.810567 1.21239 0
0.230768 1.98428 0
9.73521 2.74844 0
3.3404 4.70138 0
5.77594 2.04235 0
7.15783 4.73615 0
0.216159 3.06165 0
1.76987 1.05339 0
8.02583 4.26765 0
7.56365 4.24857 0
4.96726 1.96176 0
8.38517 3.9437 0
1.52677 0.244341 0
1.65935 0.671188 0
3.3928 3.38251 0
3.8338 1.15621 0
2.18613 3.71376 0
4.59923 1.5065 0
3.70519 3.50408 0
5.58124 3.90197 0
1.97295 4.41364 0
3.18947 0.268115 0
8.47367 3.10172 0
0.943368 2.47083 0
2.90468 3.61185 0
1.03676 3.04769 0
3.37897 4.38251 0
8.75458 4.75574 0
5.84619 2.69315 0
9.4118 4.7615 0
1.06464 1.8524 0
1.29848 1.07609 0
1.78036 1.4889 0
3.22994 0.573327 0
6.35326 4.45143 0
2.66221 0.960278 0
2.52462 4.46437 0
9.75579 3.83012 0
3.13181 1.04942 0
8.81788 3.78779 0
1.33492 2.27945 0
1.72184 3.84471 0
9.77207 4.42792 0
8.6944 3.51504 0
4.82949 4.44398 0
1.33497 2.71513 0
1.47881 1.83752 0
2.20677 1.28146 0
3.92071 0.90151 0
6.4467 3.56273 0
9.39225 3.12472 0
4.80655 3.65652 0
7.49924 2.77261 0
3.66927 2.30786 0
6.68963 4.46969 0
8.31716 3.61509 0
1.95546 0.565271 0
4.47464 3.95925 0
7.21348 4.39926 0
8.86013 4.22599 0
1.55563 4.75122 0
3.66627 2.73437 0
8.6216 4.34165 0
0.242653 1.5037 0
7.98685 2.55042 0
2.40556 0.496038 0
2.96594 4.7388 0
4.38799 0.864738 0
2.49264 4.18334 0
2.06331 1.02116 0
1.51302 3.23064 0
0.240974 3.49772 0
1.22185 4.09528 0
0.954823 3.29228 0
2.0249 3.92804 0
7.92787 4.7843 0
2.7943 4.06917 0
6.74577 2.44217 0
0.180841 0.180841 0

CELLS 770 3080
3 66 67 284 
3 284 67 194 
3 3 245 9 
3 115 209 180 
3 116 181 210 
3 121 225 164 
3 121 164 267 
3 345 161 106 
3 60 372 233 
3 138 224 223 
3 125 223 224 
3 127 180 342 
3 81 289 197 
3 3 22 245 
3 215 355 255 
3 161 325 106 
3 80 289 81 
3 132 178 268 
3 55 223 216 
3 157 334 186 
3 127 342 248 
3 120 175 284 
3 184 346 344 
3 99 184 344 
3 148 172 312 
3 129 170 271 
3 110 186 334 
3 124 229 232 
3 108 271 170 
3 86 230 171 
3 149 232 229 
3 227 264 387 
3 65 284 175 
3 143 264 227 
3 135 215 255 
3 14 181 248 
3 43 247 231 
3 92 191 93 
3 134 264 197 
3 43 44 247 
3 99 285 170 
3 54 55 216 
3 123 171 230 
3 134 253 264 
3 59 60 233 
3 125 183 228 
3 123 277 171 
3 103 228 183 
3 31 185 359 
3 132 287 178 
3 99 170 405 
3 86 171 377 
3 129 259 170 
3 100 301 192 
3 138 190 224 
3 108 170 246 
3 148 426 172 
3 174 233 372 
3 65 175 307 
3 183 373 226 
3 100 198 301 
3 19 211 20 
3 236 297 375 
3 103 183 226 
3 136 204 272 
3 101 224 190 
3 113 192 301 
3 10 213 11 
3 136 272 257 
3 373 124 226 
3 137 238 240 
3 70 251 182 
3 120 284 194 
3 154 240 238 
3 125 265 183 
3 23 24 204 
3 123 304 176 
3 2 97 262 
3 120 295 175 
3 30 31 359 
3 88 377 193 
3 74 75 212 
3 99 321 184 
3 2 262 47 
3 113 184 329 
3 107 375 297 
3 123 176 391 
3 119 270 243 
3 87 377 88 
3 98 255 355 
3 137 296 185 
3 36 252 288 
3 172 203 312 
3 93 191 315 
3 99 187 285 
3 113 301 346 
3 34 35 199 
3 137 185 266 
3 20 211 305 
3 179 337 246 
3 127 248 181 
3 127 275 180 
3 127 181 276 
3 144 253 211 
3 75 343 212 
3 190 311 310 
3 153 243 270 
3 125 216 223 
3 14 362 181 
3 155 344 346 
3 150 364 192 
3 384 108 337 
3 141 216 228 
3 138 311 190 
3 147 213 257 
3 148 312 218 
3 115 180 275 
3 10 309 213 
3 152 297 236 
3 116 276 181 
3 165 386 275 
3 98 234 255 
3 125 228 216 
3 113 346 184 
3 7 91 254 
3 153 255 234 
3 14 248 15 
3 89 220 90 
3 124 195 226 
3 149 302 212 
3 119 212 302 
3 79 237 289 
3 243 384 337 
3 124 351 195 
3 23 204 308 
3 131 420 188 
3 65 66 284 
3 178 417 268 
3 7 254 78 
3 63 320 426 
3 79 289 80 
3 89 281 220 
3 58 306 370 
3 187 332 285 
3 332 128 285 
3 397 318 148 
3 125 224 265 
3 131 188 274 
3 122 321 249 
3 107 249 316 
3 31 266 185 
3 152 288 252 
3 218 312 428 
3 294 138 409 
3 157 186 374 
3 70 182 349 
3 128 332 251 
3 179 246 433 
3 109 310 311 
3 57 58 370 
3 182 251 332 
3 62 63 426 
3 133 423 195 
3 99 344 187 
3 151 279 235 
3 100 192 242 
3 118 332 187 
3 409 138 223 
3 155 198 350 
3 160 283 269 
3 201 318 397 
3 167 316 249 
[...]
POINT_DATA 435
SCALARS GMDS_ID int 1
LOOKUP_TABLE default
0 1 2 3 4 5 6 7 8 9 10 11 12 13 14 15 16 17 18 19 20 21 22 23 24 25 26 27 28 29 30 31 32 33 34 35 36 37 38 39 40 41 42 43 44 45 46 47 48 49 50 51 52 53 54 55 56 57 58 59 60 61 62 63 64 65 66 67 68 69 70 71 72 73 74 75 76 77 78 79 80 81 82 83 84 85 86 87 88 89 90 91 92 93 94 95 96 97 98 99 100 101 102 103 104 105 106 107 108 109 110 111 112 113 114 115 116 117 118 119 120 121 122 123 124 125 126 127 128 129 130 131 132 133 134 135 136 137 138 139 140 141 142 143 144 145 146 147 148 149 150 151 152 153 154 155 156 157 158 159 160 161 162 163 164 165 166 167 168 169 170 171 172 173 174 175 176 177 178 179 180 181 182 183 184 185 186 187 188 189 190 191 192 193 194 195 196 197 198 199 200 201 202 203 204 205 206 207 208 209 210 211 212 213 214 215 216 217 218 219 220 221 222 223 224 225 226 227 228 229 230 231 232 233 234 235 236 237 238 239 240 241 242 243 244 245 246 247 248 249 250 251 252 253 254 255 256 257 258 259 260 261 262 263 264 265 266 267 268 269 270 271 272 273 274 275 276 277 278 279 280 281 282 283 284 285 286 287 288 289 290 291 292 293 294 295 296 297 298 299 300 301 302 303 304 305 306 307 308 309 310 311 312 313 314 315 316 317 318 319 320 321 322 323 324 325 326 327 328 329 330 331 332 333 334 335 336 337 338 339 340 341 342 343 344 345 346 347 348 349 350 351 352 353 354 355 356 357 358 359 360 361 362 363 364 365 366 367 368 369 370 371 372 373 374 375 376 377 378 379 380 381 382 383 384 385 386 387 388 389 390 391 392 393 394 395 396 397 398 399 400 401 402 403 404 405 406 407 408 409 410 411 412 413 414 415 416 417 418 419 420 421 422 423 424 425 426 427 428 429 430 431 432 433 434 
SCALARS angle float 1
LOOKUP_TABLE default
0 0 0 0 0 6.28319 6.28319 0 0 0 0 0 0 0 0 0 0 0 0 0 0 0 0 0 0 0 0 0 0 0 0 0 0 0 0 0 0 0 0 0 0 0 0 0 0 0 0 0 1.39626 2.79253 4.18879 5.58505 0.698132 2.0944 3.49066 4.88692 1.39626 2.79253 4.18879 5.58505 0.698132 2.0944 3.49066 4.88692 0.152038 0.306075 0.464236 0.628903 0.802895 0.989709 1.19387 1.42147 1.68101 1.98478 2.35109 2.80751 3.39444 4.16235 5.1429 0 0 0 0 0 0 0 0 0 0 0 0 0 0 0 0 0 0 0 0.572813 0.570501 0.39635 1.81445 0.121041 6.10296 6.19104 6.26752 0.170113 0.261138 1.20544 0.430463 6.19819 0.315551 6.0927 0.254572 0.239539 0.01165 6.02624 0.117517 0.761526 1.98328 0.393858 6.24313 0.191779 0.101698 3.55896 1.17507 0.181521 6.17715 1.08764 0.610485 0.20063 0.624942 0.535558 5.6123 6.26171 1.00518 6.27835 0.0122786 0.291375 0.318319 0.0283057 1.74248 0.0500123 6.20366 6.26082 5.67681 0.0653058 6.20495 0.00287444 2.83573 0.157826 0.289484 0.089228 1.225 0.0458562 0.503706 0.104072 5.8121 1.84585 5.72905 0.12946 0.103225 0.100332 0.286066 6.25288 0.0224247 5.68086 0.361308 0.0523015 0.624633 0.802473 0.0795336 4.90993 0.11396 0.262656 0.336685 6.24944 6.25706 0.318586 1.50375 6.26232 6.17228 1.0164 3.11787 0.327191 6.27375 0.0166619 0.775746 0.802967 0.162273 0.754716 0.182014 0.303898 0.0529313 0.518471 4.37235 6.2318 6.24993 0.55267 0.0330446 1.82345 1.40084 0.0514342 5.98597 0.0136432 0.269806 0.293926 0.251907 6.24899 6.27508 6.19547 6.26852 2.42144 6.26256 0.0964329 0.547095 2.98981 0.449859 0.196912 5.56362 6.19017 0.0682998 1.55362 0.401148 0.732104 6.27826 4.27086 6.09363 1.37538 2.90529 0.0377084 0.128073 3.32451 5.9874 0.845111 0.351684 0.158704 6.2754 0.0198209 6.09417 0.0569701 0.377628 0.275654 1.68286 0.210007 6.28185 1.1961 0.0880933 6.2405 0.223858 0.0479876 1.211 0.0585047 6.24372 5.42783 0.837012 0.0479931 6.25508 0.0902187 0.553771 0.191751 0.698925 0.0196751 0.433219 6.20447 2.2882 0.00289521 6.15462 2.45363 6.06752 1.4535 0.942725 0.0175048 0.208062 0.689947 6.25045 5.99506 0.280327 0.864759 0.484812 0.103262 0.00665043 6.2487 4.68949 0.435666 0.872625 1.77423 0.373627 0.0349486 6.27188 6.27199 2.11371 6.25079 0.519825 0.112435 0.299379 6.27031 0.14866 0.0881752 0.0257647 2.76766 0.408695 2.35972 0.0274667 6.21527 6.27589 4.48431 0.225264 0.00236638 6.27585 0.62372 0.350691 6.21032 0.372761 6.02705 0.124124 0.381629 0.0187312 2.86159 0.135754 4.9825 0.325756 0.194713 0.754217 1.37319 0.17573 0.0716785 0.15363 6.05819 0.205506 0.0112594 6.26506 0.948368 0.0591782 5.94896 1.4041 0.0771528 1.54394 6.08551 0.119835 1.14904 6.27086 6.26055 2.98892 0.543576 0.093726 0.381519 6.17586 0.0396088 0.954428 0.651888 3.7765 6.2819 5.0928 0.0371984 0.498419 6.23551 6.27665 0.169433 6.27188 2.02961 0.0470875 6.2518 5.90275 0.209733 0.20869 2.33958 0.271743 6.25071 6.16387 2.84624 0.394194 0.770951 3.26406 0.466557 0.246539 0.0913711 0.0375451 0.480764 6.09106 4.63066 5.61893 6.24339 0.0530118 1.27321 0.0194551 0.150341 6.09375 4.555 0.129124 0.121643 0.272738 0.0140305 0.0580781 0.658233 0.24615 6.28256 0.598141 0.0185204 0.332602 0.0595907 5.22823 2.62368 5.71041 0.0486901 0.499829 0.23946 0.238964 0.882824 0.0690416 0.126131 0.375166 6.20996 0.118406 0.146019 0.148258 0.0282176 0.0937369 0.148758 6.27667 0.796616 0.0136743 6.27465 5.47564 0.0375277 5.96731 3.70563 6.2467 0.0585813 5.84179 0.531134 0.0645999 6.13089 1.29325 6.28156 
VECTORS cross_X float
1 0 0 1 0 0 1 0 0 1 0 0 1 0 0 5.89146e-13 1 0 6.09796e-13 1 0 1 0 0 1 0 0 1 0 0 1 0 0 1 0 0 1 0 0 1 0 0 1 0 0 1 0 0 1 0 0 1 0 0 1 0 0 1 0 0 1 0 0 1 0 0 1 0 0 1 0 0 1 0 0 1 0 0 1 0 0 1 0 0 1 0 0 1 0 0 1 0 0 1 0 0 1 0 0 1 0 0 1 0 0 1 0 0 1 0 0 1 0 0 1 0 0 1 0 0 1 0 0 1 0 0 1 0 0 1 0 0 1 0 0 1 0 0 1 0 0 1 0 0 0.939693 0.34202 0 0.766044 0.642788 0 0.5 0.866025 0 0.173648 0.984808 0 0.984808 0.173648 0 0.866025 0.5 0 0.642788 0.766044 0 0.34202 0.939693 0 0.939693 0.34202 0 0.766044 0.642788 0 0.5 0.866025 0 0.173648 0.984808 0 0.984808 0.173648 0 0.866025 0.5 0 0.642788 0.766044 0 0.34202 0.939693 0 0.999278 0.0380003 0 0.997074 0.0764442 0 0.993273 0.115799 0 0.987665 0.156579 0 0.979923 0.199379 0 0.969546 0.24491 0 0.955788 0.294056 0 0.937519 0.347934 0 0.912986 0.40799 0 0.8794 0.476084 0 0.832178 0.554509 0 0.763631 0.645652 0 0.661027 0.750362 0 0.505714 0.862701 0 0.281225 0.959642 0 1 0 0 1 0 0 1 0 0 1 0 0 1 0 0 1 0 0 1 0 0 1 0 0 1 0 0 1 0 0 1 0 0 1 0 0 1 0 0 1 0 0 1 0 0 1 0 0 1 0 0 1 0 0 1 0 0 0.989764 0.142714 0 0.989846 0.142142 0 0.995095 0.0989255 0 0.89887 0.438216 0 0.999542 0.0302555 0 0.0450406 0.998985 0 0.0230335 0.999735 0 0.00391752 0.999992 0 0.999096 0.0425156 0 0.99787 0.0652382 0 0.954934 0.296819 0 0.994215 0.107408 0 0.0212485 0.999774 0 0.99689 0.0788059 0 0.0476029 0.998866 0 0.997975 0.0636001 0 0.998207 0.0598489 0 0.999996 0.0029125 0 0.0641914 0.997938 0 0.999568 0.0293749 0 0.981932 0.189233 0 0.879579 0.475752 0 0.995156 0.0983053 0 0.0100135 0.99995 0 0.998851 0.0479263 0 0.999677 0.0254218 0 0.629614 0.776908 0 0.95716 0.289561 0 0.99897 0.0453646 0 0.0265063 0.999649 0 0.96326 0.268572 0 0.988376 0.152029 0 0.998742 0.0501365 0 0.98782 0.155601 0 0.99105 0.13349 0 0.166937 0.985968 0 0.00536941 0.999986 0 0.968591 0.248658 0 0.00120951 0.999999 0 0.999995 0.00306964 0 0.997348 0.0727794 0 0.996835 0.0794958 0 0.999975 0.00707637 0 0.906608 0.421973 0 0.999922 0.0125027 0 0.0198807 0.999802 0 0.00559157 0.999984 0 0.151013 0.988532 0 0.999867 0.0163257 0 0.0195583 0.999809 0 1 0.00071861 0 0.759058 0.651023 0 0.999222 0.0394462 0 0.997382 0.0723078 0 0.999751 0.0223051 0 0.953471 0.301486 0 0.999934 0.0114638 0 0.992082 0.125594 0 0.999662 0.026015 0 0.1175 0.993073 0 0.895403 0.445257 0 0.138091 0.99042 0 0.999476 0.0323593 0 0.999667 0.0258034 0 0.999685 0.0250804 0 0.997444 0.0714556 0 0.00757535 0.999971 0 0.999984 0.00560615 0 0.150013 0.988684 0 0.995923 0.0902043 0 0.999915 0.013075 0 0.987832 0.155524 0 0.979944 0.199275 0 0.999802 0.0198821 0 0.336609 0.941645 0 0.999594 0.0284861 0 0.997845 0.0656169 0 0.99646 0.0840718 0 0.00843586 0.999964 0 0.00653252 0.999979 0 0.99683 0.0795623 0 0.930163 0.367146 0 0.00521545 0.999986 0 0.0277217 0.999616 0 0.96789 0.251375 0 0.711288 0.7029 0 0.996656 0.0817065 0 0.00235793 0.999997 0 0.999991 0.00416547 0 0.981253 0.192723 0 0.979919 0.199396 0 0.999177 0.0405571 0 0.982253 0.187561 0 0.998965 0.0454879 0 0.997115 0.0759015 0 0.999912 0.0132324 0 0.991611 0.129255 0 0.459745 0.888051 0 0.0128466 0.999917 0 0.00831291 0.999965 0 0.99047 0.137728 0 0.999966 0.00826107 0 0.897882 0.440237 0 0.9393 0.343096 0 0.999917 0.0128582 0 0.0742363 0.997241 0 0.999994 0.00341078 0 0.997726 0.0674005 0 0.997301 0.0734155 0 0.998018 0.0629352 0 0.00854833 0.999963 0 0.0020263 0.999998 0 0.0219263 0.99976 0 0.00366579 0.999993 0 0.822297 0.569059 0 0.00515697 0.999987 0 0.999709 0.0241059 0 0.990661 0.136348 0 0.733423 0.679773 0 0.993683 0.112228 0 0.998789 0.0492081 0 0.178922 0.983863 0 0.0232522 0.99973 0 0.999854 0.0170741 0 0.925514 0.378714 0 0.994975 0.100119 0 0.983297 0.182006 0 0.0012302 0.999999 0 0.482126 0.876102 0 0.0473711 0.998877 0 0.941465 0.33711 0 0.747622 0.664125 0 0.999956 0.00942697 0 0.999487 0.0320128 0 0.674044 0.738691 0 0.0738787 0.997267 0 0.977764 0.209709 0 0.996137 0.0878077 0 0.999213 0.0396655 0 0.00194685 0.999998 0 0.999988 0.0049552 0 0.047237 0.998884 0 0.999899 0.014242 0 0.995547 0.0942669 0 0.997626 0.0688591 0 0.912797 0.408412 0 0.998622 0.0524777 0 0.000332579 1 0 0.955624 0.294589 0 0.999757 0.0220216 0 0.0106714 0.999943 0 0.998434 0.0559352 0 0.999928 0.0119966 0 0.95452 0.298146 0 0.999893 0.0146256 0 0.00986618 0.999951 0 0.212212 0.977224 0 0.978186 0.207729 0 0.999928 0.011998 0 0.00702581 0.999975 0 0.999746 0.0225528 0 0.990432 0.138001 0 0.998851 0.0479195 0 0.984773 0.173844 0 0.999988 0.00491877 0 0.994141 0.108093 0 0.0196765 0.999806 0 0.840793 0.541357 0 1 0.000723803 0 0.0321346 0.999484 0 0.817691 0.575657 0 0.0538901 0.998547 0 0.934703 0.355431 0 0.972355 0.233506 0 0.99999 0.0043762 0 0.998648 0.051992 0 0.985161 0.171633 0 0.00818301 0.999967 0 0.0719695 0.997407 0 0.997545 0.0700245 0 0.976722 0.21451 0 0.992664 0.120906 0 0.999667 0.0258125 0 0.999999 0.00166261 0 0.00862185 0.999963 0 0.387967 0.921673 0 0.994074 0.108701 0 0.976298 0.21643 0 0.903231 0.429155 0 0.995641 0.0932711 0 0.999962 0.00873703 0 0.00282655 0.999996 0 0.00279944 0.999996 0 0.863601 0.504177 0 0.0080978 0.999967 0 0.991568 0.129591 0 0.999605 0.0281051 0 0.9972 0.0747749 0 0.00321778 0.999995 0 0.999309 0.0371564 0 0.999757 0.022042 0 0.999979 0.00644113 0 0.770025 0.638014 0 0.994785 0.101996 0 0.83098 0.556303 0 0.999976 0.00686663 0 0.0169789 0.999856 0 0.00182442 0.999998 0 0.434712 0.90057 0 0.998415 0.0562862 0 1 0.000591595 0 0.00183353 0.999998 0 0.987868 0.155299 0 0.996159 0.0875604 0 0.0182155 0.999834 0 0.995661 0.0930554 0 0.0639894 0.997951 0 0.999519 0.0310261 0 0.995452 0.0952627 0 0.999989 0.00468278 0 0.754833 0.655917 0 0.999424 0.033932 0 0.319471 0.947596 0 0.996686 0.081349 0 0.998815 0.0486591 0 0.982276 0.187439 0 0.94165 0.336594 0 0.999035 0.0439183 0 0.999839 0.0179187 0 0.999263 0.0383982 0 0.0562199 0.998418 0 0.998681 0.051354 0 0.999996 0.00281485 0 0.00453147 0.99999 0 0.972025 0.234877 0 0.999891 0.014794 0 0.0834598 0.996511 0 0.93902 0.343861 0 0.999814 0.019287 0 0.926428 0.376471 0 0.0493982 0.998779 0 0.999551 0.0299542 0 0.959024 0.283325 0 0.00308252 0.999995 0 0.00565871 0.999984 0 0.733574 0.67961 0 0.990781 0.135476 0 0.999725 0.0234294 0 0.995455 0.0952351 0 0.0268281 0.99964 0 0.999951 0.00990204 0 0.971668 0.236349 0 0.986749 0.162252 0 0.586451 0.809985 0 0.00032244 1 0 0.293222 0.956044 0 0.999957 0.00929946 0 0.992247 0.124283 0 0.0119189 0.999929 0 0.00163449 0.999999 0 0.999103 0.0423456 0 0.00282608 0.999996 0 0.874009 0.485909 0 0.999931 0.0117716 0 0.00784684 0.999969 0 0.0949647 0.995481 0 0.998626 0.0524092 0 0.998639 0.0521487 0 0.83377 0.552111 0 0.997693 0.0678834 0 0.00811993 0.999967 0 0.0298246 0.999555 0 0.757345 0.653015 0 0.995148 0.098389 0 0.981483 0.191547 0 0.68513 0.728421 0 0.993205 0.116375 0 0.998101 0.0615958 0 0.999739 0.0228408 0 0.999956 0.00938613 0 0.992786 0.119902 0 0.0480139 0.998847 0 0.401478 0.915868 0 0.165302 0.986243 0 0.00994965 0.999951 0 0.999912 0.0132526 0 0.949768 0.312955 0 0.999988 0.00486376 0 0.999294 0.0375764 0 0.0473419 0.998879 0 0.418729 0.908111 0 0.999479 0.0322754 0 0.999538 0.0304062 0 0.997676 0.0681317 0 0.999994 0.00350762 0 0.999895 0.014519 0 0.986491 0.163816 0 0.998107 0.0614987 0 0.000155649 1 0 0.98884 0.148978 0 0.999989 0.00463007 0 0.996545 0.0830548 0 0.999889 0.0148971 0 0.260691 0.965422 0 0.792487 0.609889 0 0.142706 0.989765 0 0.999926 0.0121722 0 0.992203 0.124632 0 0.998209 0.0598292 0 0.998216 0.0597055 0 0.975743 0.218919 0 0.999851 0.0172595 0 0.999503 0.0315276 0 0.995605 0.093654 0 0.0183048 0.999832 0 0.999562 0.0295971 0 0.999334 0.0364966 0 0.999313 0.037056 0 0.999975 0.00705434 0 0.999725 0.0234321 0 0.999309 0.0371809 0 0.00162954 0.999999 0 0.980234 0.19784 0 0.999994 0.00341857 0 0.00213297 0.999998 0 0.200518 0.97969 0 0.999956 0.00938179 0 0.0788858 0.996884 0 0.600709 0.799467 0 0.00912165 0.999958 0 0.999893 0.0146448 0 0.110124 0.993918 0 0.991197 0.132394 0 0.99987 0.0161493 0 0.0380654 0.999275 0 0.948188 0.31771 0 0.000405789 1 0 
VECTORS VY float