# vtk DataFile Version 3.0
Generated by GMDS VTK Writer

ASCII
DATASET UNSTRUCTURED_GRID
POINTS 355 float
0 0 0
0 12 0
20 12 0
20 0 0
4 4 0
4 8 0
8 4 0
12 4 0
16 8 0
16 4 0
4.85698 7.80718 0
5.67582 7.48974 0
6.4265 7.03486 0
7.05975 6.42822 0
7.52561 5.68498 0
7.83138 4.86199 0
12.1686 4.86199 0
12.4744 5.68498 0
12.9403 6.42822 0
13.5735 7.03486 0
14.3242 7.48974 0
15.143 7.80718 0
4 7 0
4 6 0
4 5 0
5 4 0
6 4 0
7 4 0
13 4 0
14 4 0
15 4 0
16 5 0
16 6 0
16 7 0
1 12 0
2 12 0
3 12 0
4 12 0
5 12 0
6 12 0
7 12 0
8 12 0
9 12 0
10 12 0
11 12 0
12 12 0
13 12 0
14 12 0
15 12 0
16 12 0
17 12 0
18 12 0
19 12 0
20 11 0
20 10 0
20 9 0
20 8 0
20 7 0
20 6 0
20 5 0
20 4 0
20 3 0
20 2 0
20 1 0
19 0 0
18 0 0
17 0 0
16 0 0
15 0 0
14 0 0
13 0 0
12 0 0
11 0 0
10 0 0
9 0 0
8 0 0
7 0 0
6 0 0
5 0 0
4 0 0
3 0 0
2 0 0
1 0 0
0 1 0
0 2 0
0 3 0
0 4 0
0 5 0
0 6 0
0 7 0
0 8 0
0 9 0
0 10 0
0 11 0
10.0041 8.35854 0
12.4924 9.35442 0
7.64146 9.49425 0
10 5.99265 0
10.0267 2.53746 0
17.5562 9.65051 0
2.44382 9.65051 0
2.51524 2.54474 0
17.6667 2.33333 0
5.37741 10.1101 0
14.6226 10.1101 0
18.0011 7.89252 0
2.02375 7.76664 0
7.5 2 0
12.5 2 0
2 4.5 0
4.47878 2.08372 0
15.5212 2.08372 0
17.9436 4.5234 0
11.3181 7.11429 0
8.66937 7.12021 0
10.3467 4.32543 0
10.7302 10.2688 0
9.17652 10.3043 0
3.77511 10.533 0
16.2249 10.533 0
1.625 6.08333 0
17.4902 6.01182 0
12.5265 8.07123 0
7.47165 7.97093 0
6 2.4375 0
14 2.4375 0
6.29902 8.75764 0
13.701 8.75764 0
10.9952 1.46838 0
9.05995 1.46838 0
6.71453 10.5832 0
13.2855 10.5832 0
9.15008 4.99445 0
11.3164 2.8281 0
8.65467 2.80049 0
11.2829 8.64581 0
8.70247 8.69406 0
11.2179 5.68352 0
18.6603 10.4119 0
1.33971 10.4119 0
1.34848 1.34848 0
18.6515 1.34848 0
11.9185 10.7549 0
1.33333 3.30425 0
3.29211 1.31354 0
18.6552 3.29023 0
16.6888 1.33203 0
18.6123 8.72006 0
1.36371 8.75689 0
4.27372 9.20337 0
15.7263 9.20337 0
10.2313 7.11015 0
16.943 8.40674 0
2.8865 8.48989 0
8.74374 6.21403 0
13.5417 1.21875 0
6.45833 1.21875 0
2.9363 5.42524 0
18.9334 5.4199 0
17.0949 3.40988 0
2.80509 3.45819 0
17.1511 10.8752 0
2.84891 10.8752 0
9.21929 3.81672 0
7.93932 10.9539 0
18.5908 7.02566 0
2.79539 6.86894 0
15.1344 10.8668 0
4.86563 10.8668 0
14.7232 1.14276 0
5.27679 1.14276 0
10.0414 1.04895 0
9.80203 9.50032 0
16.6083 2.61347 0
3.43235 2.5885 0
11.3061 4.75771 0
16.9162 7.48285 0
9.94352 10.8379 0
5.28472 8.72739 0
14.7153 8.72739 0
7.77562 3.05689 0
12.2708 3.03831 0
1.13013 7.02882 0
17.0928 5.12121 0
1.05134 5.33438 0
16.6201 9.43783 0
3.35855 9.44822 0
12.0515 6.39959 0
5.04354 2.92662 0
14.9565 2.92662 0
12.5666 1.06353 0
7.43335 1.06353 0
18.9181 4.38875 0
7.74395 7.07953 0
10.4678 3.28035 0
2.99219 4.43929 0
0.955077 2.41723 0
2.31868 0.985599 0
19.0144 2.31868 0
17.5793 0.955891 0
4.18926 1.00372 0
15.808 1.00636 0
10.428 5.19238 0
18.9887 7.89453 0
10.7726 6.48303 0
11.5821 9.53338 0
3.18698 7.72484 0
19.1583 9.57576 0
0.793637 9.53206 0
9.39636 6.57058 0
6.66158 9.62765 0
13.3436 9.62234 0
5.83672 11.0291 0
14.1633 11.0291 0
10.8347 7.94927 0
9.07894 8.04597 0
13.4074 7.91326 0
6.55311 7.93589 0
8.47266 9.5451 0
11.1226 11.034 0
6.67972 2.95902 0
13.3269 2.95637 0
1.0028 4.18854 0
10.582 9.29917 0
11.1727 3.8253 0
16.83 6.57275 0
0.910952 7.93506 0
12.5085 7.23558 0
16.4266 11.3055 0
3.57344 11.3055 0
8.69108 11.1443 0
12.5724 11.1714 0
15.8296 3.1217 0
4.17039 3.1217 0
4.61898 10.0076 0
15.381 10.0076 0
11.7485 7.93836 0
8.28145 7.92449 0
12.9302 8.72799 0
7.11637 8.71885 0
11.6111 0.79443 0
8.40186 0.793508 0
9.44587 3.08164 0
16.9376 4.17239 0
7.98566 6.31949 0
10.7662 2.23059 0
9.28405 2.29911 0
8.45776 5.40951 0
17.6831 8.92855 0
2.24121 8.91361 0
8.65739 4.39215 0
8.33941 2.10644 0
11.6659 2.10386 0
16.243 8.7417 0
3.757 8.7417 0
17.67 6.87471 0
7.88934 8.64908 0
12.1107 8.64908 0
0.801486 6.25644 0
1.97802 6.8358 0
18.0126 11.1745 0
1.98737 11.1745 0
9.2892 5.71621 0
18.1247 5.26732 0
2.11154 5.32366 0
7.22493 11.2175 0
10.7268 0.692012 0
9.28744 0.728264 0
4.54227 8.59424 0
15.4577 8.59424 0
7.40626 10.2452 0
12.3713 10.1821 0
14.6747 1.96049 0
5.32533 1.96049 0
9.34728 8.82608 0
7.06261 7.32775 0
0.821442 11.1771 0
19.1786 11.1771 0
5.77006 8.1771 0
14.2163 8.18543 0
6.73288 1.97659 0
13.2676 1.9764 0
17.0572 10.133 0
2.92417 10.1536 0
19.2345 0.765524 0
0.76878 0.76878 0
5.79622 3.21875 0
14.2038 3.21875 0
13.4467 11.3529 0
2.13902 10.3417 0
17.8594 10.34 0
2.03534 3.69856 0
17.9416 3.72603 0
8.56557 3.5303 0
19.3518 8.63807 0
16.542 0.618796 0
3.5 0.595825 0
19.3816 3.47385 0
9.82851 3.74764 0
5.7877 9.35399 0
14.2085 9.39553 0
9.5462 4.42261 0
19.3994 10.4329 0
0.590958 10.4242 0
6.51427 11.3992 0
16.6826 5.74116 0
0.629511 3.43127 0
6.12503 10.1557 0
13.875 10.1557 0
19.3984 1.52383 0
0.601573 1.52383 0
1.52383 0.601573 0
18.4762 0.601573 0
3.25136 6.1316 0
19.2514 6.1316 0
11.8464 5.45 0
11.6963 3.39183 0
2.4496 6.11143 0
18.3564 6.13016 0
18.2866 9.56421 0
1.72018 9.60111 0
15.7458 11.3347 0
4.25421 11.3347 0
10.4585 11.4225 0
9.47602 7.44109 0
10.0289 1.84214 0
1.95959 1.9879 0
18.0041 1.76082 0
5.9061 0.73087 0
14.0939 0.73087 0
10.035 10.1453 0
2.75536 1.77299 0
18.2477 2.56982 0
0.616364 8.61585 0
9.41271 11.4064 0
3.72338 1.84001 0
16.2761 1.84897 0
17.1372 1.80742 0
11.7436 11.3441 0
11.9479 1.444 0
8.02396 1.4292 0
8.22122 10.2812 0
4.9808 9.33279 0
15.0186 9.33971 0
9.79336 5.10729 0
1.95201 2.92275 0
9.13618 9.49051 0
16.4672 3.45368 0
3.48 3.52154 0
11.3813 6.29824 0
10.6759 8.5632 0
10.6046 5.8379 0
19.3286 7.22009 0
11.505 10.3261 0
17.7062 3.03985 0

CELLS 618 2472
3 215 94 324 
3 152 185 248 
3 153 249 186 
3 248 185 99 
3 249 100 186 
3 149 186 234 
3 150 235 185 
3 324 94 151 
3 234 186 118 
3 235 119 185 
3 87 88 184 
3 8 152 176 
3 88 258 184 
3 206 254 5 
3 124 156 273 
3 125 272 155 
3 59 158 314 
3 24 157 313 
3 105 248 147 
3 106 148 249 
3 129 246 325 
3 101 160 174 
3 97 151 204 
3 113 204 151 
3 145 292 192 
3 114 154 244 
3 8 253 152 
3 113 236 227 
3 97 209 151 
3 70 155 329 
3 76 328 156 
3 58 59 314 
3 23 24 313 
3 107 220 180 
3 108 181 221 
3 129 325 171 
3 19 227 216 
3 153 254 206 
3 106 226 148 
3 113 151 214 
3 105 152 248 
3 106 249 153 
3 106 153 206 
3 70 190 155 
3 76 156 191 
3 105 147 203 
3 158 192 263 
3 105 176 152 
3 263 192 112 
3 156 170 273 
3 155 272 169 
3 157 195 264 
3 50 260 161 
3 36 162 261 
3 94 214 151 
3 264 195 109 
3 48 167 213 
3 38 212 168 
3 89 226 182 
3 112 192 292 
3 124 280 156 
3 125 155 281 
3 113 227 187 
3 59 192 158 
3 219 116 323 
3 107 280 220 
3 108 221 281 
3 103 168 212 
3 104 213 167 
3 205 353 271 
3 89 90 226 
3 24 195 157 
3 156 280 191 
3 155 190 281 
3 107 191 280 
3 108 281 190 
3 34 261 276 
3 52 277 260 
3 323 116 177 
3 68 169 201 
3 78 200 170 
3 14 244 247 
3 159 243 292 
3 95 205 271 
3 114 209 154 
3 292 243 112 
3 142 271 353 
3 160 291 195 
3 291 109 195 
3 7 28 181 
3 6 180 27 
3 76 77 328 
3 69 70 329 
3 106 206 166 
3 55 294 207 
3 105 165 255 
3 154 247 244 
3 105 203 165 
3 50 51 260 
3 35 36 261 
3 38 39 212 
3 47 48 213 
3 87 184 222 
3 122 216 227 
3 7 175 16 
3 22 166 206 
3 147 207 294 
3 114 244 193 
3 41 230 164 
3 51 52 260 
3 34 35 261 
3 61 198 297 
3 80 197 296 
3 66 295 199 
3 102 173 354 
3 159 354 173 
3 101 345 160 
3 86 87 222 
3 67 68 201 
3 78 79 200 
3 85 306 196 
3 145 192 297 
3 174 335 331 
3 101 174 331 
3 138 319 290 
3 139 289 320 
3 41 164 265 
3 94 172 223 
3 103 212 307 
3 104 308 213 
3 8 176 33 
3 137 175 202 
3 119 161 282 
3 118 283 162 
3 111 232 173 
3 110 174 233 
3 91 208 333 
3 54 55 207 
3 91 92 208 
3 22 313 166 
3 119 228 161 
3 118 162 229 
3 80 81 197 
3 65 66 199 
3 84 85 196 
3 61 62 198 
3 133 181 252 
3 134 251 180 
3 138 207 319 
3 139 320 208 
3 110 170 200 
3 111 201 169 
3 165 318 255 
3 36 229 162 
3 50 161 228 
3 112 243 183 
3 25 188 233 
3 30 232 189 
3 145 297 198 
3 144 296 197 
3 146 199 295 
3 28 221 181 
3 27 180 220 
3 122 227 236 
3 106 166 259 
3 5 22 206 
3 115 175 224 
3 117 334 177 
3 133 245 194 
3 139 276 261 
3 138 260 277 
3 98 194 245 
3 18 227 19 
3 17 315 187 
3 106 182 226 
3 143 196 306 
3 120 184 258 
3 115 344 202 
3 115 202 175 
3 4 25 233 
3 9 232 30 
3 68 329 169 
3 78 170 328 
3 144 331 335 
3 301 344 115 
3 17 187 18 
3 199 337 327 
3 146 337 199 
3 140 326 197 
3 141 327 198 
3 110 233 188 
3 111 189 232 
3 197 326 331 
3 198 327 332 
3 109 291 222 
3 95 257 205 
3 109 222 184 
3 10 178 278 
3 21 279 179 
3 16 175 315 
3 7 224 175 
3 187 315 349 
3 172 330 223 
3 137 315 175 
3 135 205 257 
3 107 180 251 
3 108 252 181 
3 26 27 220 
3 28 29 221 
3 19 216 20 
3 11 217 12 
3 330 116 223 
3 117 230 334 
3 155 169 329 
3 156 328 170 
3 98 242 194 
3 118 322 168 
3 119 167 321 
3 143 345 196 
3 196 345 326 
3 102 337 173 
3 111 173 336 
3 110 335 174 
3 103 234 168 
3 104 167 235 
3 115 224 194 
3 59 60 192 
3 73 171 266 
3 73 267 171 
3 70 71 190 
3 75 76 191 
3 6 293 180 
3 119 235 167 
3 118 168 234 
3 96 270 341 
3 148 333 208 
3 133 194 224 
3 4 195 24 
3 96 341 218 
3 114 193 237 
3 41 42 230 
3 89 182 258 
3 143 222 291 
3 194 242 298 
3 123 237 193 
3 128 171 325 
3 10 278 11 
3 20 279 21 
3 96 218 256 
3 31 183 243 
3 57 314 352 
3 134 180 293 
3 4 348 195 
3 94 274 172 
3 14 247 15 
3 117 330 172 
3 126 210 239 
3 127 238 211 
3 136 256 218 
3 160 195 348 
3 30 189 287 
3 25 286 188 
3 117 172 346 
3 31 305 183 
3 68 69 329 
3 77 78 328 
3 128 266 171 
3 129 171 267 
3 38 168 322 
3 48 321 167 
3 95 211 238 
3 96 239 210 
3 94 223 350 
3 110 273 170 
3 111 169 272 
3 26 220 286 
3 29 287 221 
3 57 58 314 
3 22 23 313 
3 159 173 347 
3 160 348 174 
3 117 177 330 
3 15 247 250 
3 116 330 177 
3 165 203 352 
3 18 187 227 
3 40 41 265 
3 25 26 286 
3 29 30 287 
3 13 275 193 
3 11 278 217 
3 20 216 279 
3 88 89 258 
3 2 53 277 
3 2 277 52 
3 1 276 93 
3 1 34 276 
3 6 15 250 
3 33 176 225 
3 99 185 282 
3 100 283 186 
3 9 31 243 
3 3 284 63 
3 3 64 284 
3 0 83 285 
3 0 285 82 
3 113 214 236 
3 114 237 215 
3 152 253 185 
3 153 186 254 
3 122 238 216 
3 123 217 239 
3 13 193 244 
3 7 181 316 
3 10 268 178 
3 21 179 269 
3 60 297 192 
3 45 46 231 
3 106 259 182 
3 111 272 189 
3 124 273 188 
3 125 189 272 
3 110 188 273 
3 32 33 225 
3 31 32 305 
3 126 239 217 
3 127 216 238 
3 135 223 205 
3 135 236 214 
3 136 215 237 
3 120 182 259 
3 121 263 183 
3 120 264 184 
3 124 220 280 
3 125 281 221 
3 112 183 263 
3 109 184 264 
3 12 275 13 
3 116 205 223 
3 71 72 240 
3 74 75 241 
3 113 187 349 
3 94 215 274 
3 72 73 266 
3 73 74 267 
3 137 202 351 
3 136 274 215 
3 133 316 181 
3 105 255 176 
3 121 183 305 
3 163 242 293 
3 120 258 182 
3 126 278 178 
3 127 179 279 
3 49 50 228 
3 36 37 229 
3 149 254 186 
3 150 185 253 
3 133 224 316 
3 121 255 318 
3 136 218 346 
3 119 282 185 
3 118 186 283 
3 134 293 242 
3 118 229 322 
3 119 321 228 
3 98 325 246 
3 13 244 14 
3 154 209 262 
3 97 262 209 
3 71 240 190 
3 75 191 241 
3 126 178 299 
3 127 300 179 
3 211 308 300 
3 210 299 307 
3 165 352 314 
3 127 211 300 
3 126 299 210 
3 144 335 200 
3 146 201 336 
3 137 349 315 
3 96 210 270 
3 110 200 335 
3 111 336 201 
3 130 265 270 
3 95 271 211 
3 113 349 204 
3 56 352 203 
3 164 270 265 
3 179 343 269 
3 178 268 342 
3 132 247 262 
3 154 262 247 
3 136 346 274 
3 150 269 343 
3 149 342 268 
3 130 270 210 
3 131 271 231 
3 142 231 271 
3 132 250 247 
3 131 211 271 
3 56 57 352 
3 72 266 240 
3 74 241 267 
3 124 188 286 
3 125 287 189 
3 44 45 338 
3 100 320 289 
3 99 290 319 
3 48 49 321 
3 37 38 322 
3 131 213 308 
3 130 307 212 
3 44 338 219 
3 45 231 338 
3 123 193 275 
3 151 209 324 
3 107 340 191 
3 108 190 339 
3 117 341 230 
3 177 334 323 
3 43 323 334 
3 65 199 312 
3 140 197 311 
3 141 312 199 
3 81 311 197 
3 141 198 309 
3 62 309 198 
3 140 310 196 
3 84 196 310 
3 144 200 296 
3 146 295 201 
3 164 230 341 
3 126 217 278 
3 127 279 216 
3 115 194 298 
3 132 301 250 
3 67 201 295 
3 79 296 200 
3 97 202 344 
3 133 252 245 
3 134 246 251 
3 130 212 304 
3 163 250 301 
3 124 286 220 
3 125 221 287 
3 46 47 288 
3 47 213 288 
3 103 307 299 
3 104 300 308 
3 147 294 203 
3 134 242 246 
3 5 268 10 
3 8 21 269 
3 137 351 204 
3 12 217 275 
3 98 246 242 
3 139 208 303 
3 138 302 207 
3 140 196 326 
3 141 199 327 
3 144 197 331 
3 145 198 332 
3 131 288 213 
3 176 255 225 
3 97 351 202 
3 97 204 351 
3 56 203 294 
3 128 245 252 
3 129 251 246 
3 102 327 337 
3 123 275 217 
3 137 204 349 
3 90 91 333 
3 128 325 245 
3 6 250 293 
3 92 303 208 
3 54 207 302 
3 99 282 290 
3 100 289 283 
3 101 331 326 
3 102 332 327 
3 114 215 324 
3 128 240 266 
3 129 267 241 
3 121 305 225 
3 114 324 209 
3 147 319 207 
3 148 208 320 
3 42 43 334 
3 121 225 255 
3 32 225 305 
3 116 219 353 
3 53 54 302 
3 92 93 303 
3 122 236 257 
3 123 256 237 
3 5 254 268 
3 8 269 253 
3 55 56 294 
3 161 290 282 
3 162 283 289 
3 163 293 250 
3 142 353 219 
3 62 63 309 
3 64 65 312 
3 81 82 311 
3 83 84 310 
3 85 86 306 
3 39 40 304 
3 66 67 295 
3 79 80 296 
3 60 61 297 
3 43 44 323 
3 101 326 345 
3 136 237 256 
3 135 257 236 
3 39 304 212 
3 16 315 17 
3 95 238 257 
3 96 256 239 
3 130 210 307 
3 131 308 211 
3 149 268 254 
3 150 253 269 
3 116 353 205 
3 142 338 231 
3 122 257 238 
3 123 239 256 
3 160 345 291 
3 135 214 350 
3 164 341 270 
3 90 333 226 
3 44 219 323 
3 145 354 292 
3 94 350 214 
3 117 346 218 
3 86 222 306 
3 145 332 354 
3 142 219 338 
3 143 306 222 
3 131 231 288 
3 128 339 240 
3 129 241 340 
3 173 232 347 
3 174 348 233 
3 117 218 341 
3 9 243 347 
3 159 347 243 
3 7 316 224 
3 135 350 223 
3 46 288 231 
3 128 252 339 
3 129 340 251 
3 130 304 265 
3 120 317 264 
3 121 318 263 
3 158 263 318 
3 157 264 317 
3 115 298 301 
3 148 226 333 
3 163 301 298 
3 97 344 262 
3 149 234 342 
3 150 343 235 
3 103 342 234 
3 104 235 343 
3 49 228 321 
3 37 322 229 
3 132 344 301 
3 163 298 242 
3 161 260 290 
3 162 289 261 
3 139 261 289 
3 138 290 260 
3 99 319 248 
3 100 249 320 
3 166 313 317 
3 165 314 318 
3 42 334 230 
3 158 318 314 
3 157 317 313 
3 147 248 319 
3 148 320 249 
3 166 317 259 
3 120 259 317 
3 53 302 277 
3 93 276 303 
3 4 233 348 
3 9 347 232 
3 98 245 325 
3 138 277 302 
3 139 303 276 
3 40 265 304 
3 190 240 339 
3 191 340 241 
3 63 284 309 
3 83 310 285 
3 82 285 311 
3 64 312 284 
3 108 339 252 
3 107 251 340 
3 141 309 284 
3 140 285 310 
3 140 311 285 
3 141 284 312 
3 178 342 299 
3 179 300 343 
3 132 262 344 
3 103 299 342 
3 104 343 300 
3 172 274 346 
3 146 336 337 
3 173 337 336 
3 143 291 345 
3 159 292 354 
3 102 354 332 

CELL_TYPES 618
5 
5 
5 
5 
5 
5 
5 
5 
5 
5 
5 
5 
5 
5 
5 
5 
5 
5 
5 
5 
5 
5 
5 
5 
5 
5 
5 
5 
5 
5 
5 
5 
5 
5 
5 
5 
5 
5 
5 
5 
5 
5 
5 
5 
5 
5 
5 
5 
5 
5 
5 
5 
5 
5 
5 
5 
5 
5 
5 
5 
5 
5 
5 
5 
5 
5 
5 
5 
5 
5 
5 
5 
5 
5 
5 
5 
5 
5 
5 
5 
5 
5 
5 
5 
5 
5 
5 
5 
5 
5 
5 
5 
5 
5 
5 
5 
5 
5 
5 
5 
5 
5 
5 
5 
5 
5 
5 
5 
5 
5 
5 
5 
5 
5 
5 
5 
5 
5 
5 
5 
5 
5 
5 
5 
5 
5 
5 
5 
5 
5 
5 
5 
5 
5 
5 
5 
5 
5 
5 
5 
5 
5 
5 
5 
5 
5 
5 
5 
5 
5 
5 
5 
5 
5 
5 
5 
5 
5 
5 
5 
5 
5 
5 
5 
5 
5 
5 
5 
5 
5 
5 
5 
5 
5 
5 
5 
5 
5 
5 
5 
5 
5 
5 
5 
5 
5 
5 
5 
5 
5 
5 
5 
5 
5 
5 
5 
5 
5 
5 
5 
5 
5 
5 
5 
5 
5 
5 
5 
5 
5 
5 
5 
5 
5 
5 
5 
5 
5 
5 
5 
5 
5 
5 
5 
5 
5 
5 
5 
5 
5 
5 
5 
5 
5 
5 
5 
5 
5 
5 
5 
5 
5 
5 
5 
5 
5 
5 
5 
5 
5 
5 
5 
5 
5 
5 
5 
5 
5 
5 
5 
5 
5 
5 
5 
5 
5 
5 
5 
5 
5 
5 
5 
5 
5 
5 
5 
5 
5 
5 
5 
5 
5 
5 
5 
5 
5 
5 
5 
5 
5 
5 
5 
5 
5 
5 
5 
5 
5 
5 
5 
5 
5 
5 
5 
5 
5 
5 
5 
5 
5 
5 
5 
5 
5 
5 
5 
5 
5 
5 
5 
5 
5 
5 
5 
5 
5 
5 
5 
5 
5 
5 
5 
5 
5 
5 
5 
5 
5 
5 
5 
5 
5 
5 
5 
5 
5 
5 
5 
5 
5 
5 
5 
5 
5 
5 
5 
5 
5 
5 
5 
5 
5 
5 
5 
5 
5 
5 
5 
5 
5 
5 
5 
5 
5 
5 
5 
5 
5 
5 
5 
5 
5 
5 
5 
5 
5 
5 
5 
5 
5 
5 
5 
5 
5 
5 
5 
5 
5 
5 
5 
5 
5 
5 
5 
5 
5 
5 
5 
5 
5 
5 
5 
5 
5 
5 
5 
5 
5 
5 
5 
5 
5 
5 
5 
5 
5 
5 
5 
5 
5 
5 
5 
5 
5 
5 
5 
5 
5 
5 
5 
5 
5 
5 
5 
5 
5 
5 
5 
5 
5 
5 
5 
5 
5 
5 
5 
5 
5 
5 
5 
5 
5 
5 
5 
5 
5 
5 
5 
5 
5 
5 
5 
5 
5 
5 
5 
5 
5 
5 
5 
5 
5 
5 
5 
5 
5 
5 
5 
5 
5 
5 
5 
5 
5 
5 
5 
5 
5 
5 
5 
5 
5 
5 
5 
5 
5 
5 
5 
5 
5 
5 
5 
5 
5 
5 
5 
5 
5 
5 
5 
5 
5 
5 
5 
5 
5 
5 
5 
5 
5 
5 
5 
5 
5 
5 
5 
5 
5 
5 
5 
5 
5 
5 
5 
5 
5 
5 
5 
5 
5 
5 
5 
5 
5 
5 
5 
5 
5 
5 
5 
5 
5 
5 
5 
5 
5 
5 
5 
5 
5 
5 
5 
5 
5 
5 
5 
5 
5 
5 
5 
5 
5 
5 
5 
5 
5 
5 
5 
5 
5 
5 
5 
5 
5 
5 
5 
5 
5 
5 
5 
5 
5 
5 
5 
5 
5 
5 
5 
5 
5 
5 
5 
5 
5 
5 
5 
5 
5 
POINT_DATA 355
SCALARS GMDS_ID int 1
LOOKUP_TABLE default
0 1 2 3 4 5 6 7 8 9 10 11 12 13 14 15 16 17 18 19 20 21 22 23 24 25 26 27 28 29 30 31 32 33 34 35 36 37 38 39 40 41 42 43 44 45 46 47 48 49 50 51 52 53 54 55 56 57 58 59 60 61 62 63 64 65 66 67 68 69 70 71 72 73 74 75 76 77 78 79 80 81 82 83 84 85 86 87 88 89 90 91 92 93 94 95 96 97 98 99 100 101 102 103 104 105 106 107 108 109 110 111 112 113 114 115 116 117 118 119 120 121 122 123 124 125 126 127 128 129 130 131 132 133 134 135 136 137 138 139 140 141 142 143 144 145 146 147 148 149 150 151 152 153 154 155 156 157 158 159 160 161 162 163 164 165 166 167 168 169 170 171 172 173 174 175 176 177 178 179 180 181 182 183 184 185 186 187 188 189 190 191 192 193 194 195 196 197 198 199 200 201 202 203 204 205 206 207 208 209 210 211 212 213 214 215 216 217 218 219 220 221 222 223 224 225 226 227 228 229 230 231 232 233 234 235 236 237 238 239 240 241 242 243 244 245 246 247 248 249 250 251 252 253 254 255 256 257 258 259 260 261 262 263 264 265 266 267 268 269 270 271 272 273 274 275 276 277 278 279 280 281 282 283 284 285 286 287 288 289 290 291 292 293 294 295 296 297 298 299 300 301 302 303 304 305 306 307 308 309 310 311 312 313 314 315 316 317 318 319 320 321 322 323 324 325 326 327 328 329 330 331 332 333 334 335 336 337 338 339 340 341 342 343 344 345 346 347 348 349 350 351 352 353 354 
SCALARS angle float 1
LOOKUP_TABLE default
0 0 0 0 0 0 0 0 0 0 5.10089 4.45394 3.66573 2.73349 1.83125 1.09781 5.18537 4.45193 3.5497 2.61746 1.82924 1.18229 0 0 0 0 0 0 0 0 0 0 0 0 0 0 0 0 0 0 0 0 0 0 0 0 0 0 0 0 0 0 0 0 0 0 0 0 0 0 0 0 0 0 0 0 0 0 0 0 0 0 0 0 0 0 0 0 0 0 0 0 0 0 0 0 0 0 0 0 0 0 0 0 0.0251022 0.242421 5.97216 0.0702795 0.00116433 0.0318241 6.24842 6.28301 0.000149686 6.02948 0.213871 0.0119123 6.27193 0.00432375 6.27878 6.28214 0.000327034 6.28287 0.00102715 4.72689 1.97573 6.23263 0.0203229 6.24658 6.20722 0.0704219 6.28061 0.00313686 0.934904 3.72124 0.00128118 6.28188 5.0718 0.899196 6.28086 0.00333001 6.11805 0.125783 0.38064 6.27028 0.0132772 0.0337895 6.17981 5.162 0.012694 6.26915 6.28311 6.79913e-05 0.0461388 6.2828 4.85272e-05 0.000315295 6.28314 0.0107161 6.26904 6.11992 0.152446 6.15559 0.0324474 6.25406 1.48019 6.28208 0.00116669 6.28179 0.00115696 0.000294831 6.28284 0.0279167 6.25346 0.0492305 6.23263 0.00440476 6.27836 0.0927855 6.17855 6.28277 0.000436264 0.000327988 6.27045 2.71528e-05 6.28318 5.91227 0.0121593 6.27931 5.43341 0.761218 0.00811149 6.27218 6.27928 0.00130728 6.28206 0.0658235 6.21564 3.90495 0.000404294 6.28278 6.28098 0.00238887 0.000697357 2.73344 6.27038 6.28241 6.28302 6.28316 0.000147896 1.60407e-05 0.000182823 6.28302 6.073 0.00495042 5.3398 0.0872138 6.27388 0.0083379 6.2736 0.941521 5.82568 0.327121 6.16577 0.0919678 6.09304 0.29537 1.45908 4.1228 6.1522 0.0172013 0.00288051 6.27998 6.28254 0.0171897 6.22039 0.00496983 6.2769 3.611 0.0345579 6.24637 6.25364 0.0440115 6.28306 0.000127317 6.10302 0.162171 5.82228 2.65417 0.608788 5.12186 6.2814 0.00218896 0.0158656 0.000597779 2.07595 6.27882 0.00685128 1.01157 0.0248365 6.25813 0.129403 0.00702943 6.27678 0.0649059 6.2166 0.00642901 5.59179 0.22864 6.28166 6.27806 0.00966478 6.27297 0.670007 0.00165661 6.2815 6.22501 6.28269 0.00104066 6.07343 0.197736 6.11432 0.113464 6.28252 0.000673243 6.26714 3.5596 6.27705 0.00578965 4.66102 1.4986 0.0022877 6.2809 0.0432384 6.23782 2.57551e-05 6.28316 0.000622629 6.28255 0.0465426 6.25921 0.0220951 6.28259 0.000559217 0.0238807 0.00383459 6.28315 3.70047e-05 0.000167614 0.0171698 5.69205 0.458843 0.102881 0.00613426 6.2766 6.22396 0.00151004 6.28293 6.00085 0.220306 5.13757e-05 6.28313 6.28316 2.465e-05 6.28154 0.00122587 4.89232 6.26607 6.28034 0.00279684 0.0182135 6.26212 0.0411614 6.23888 0.00366533 0.604808 0.000774058 6.28305 9.6648e-05 0.000447281 6.28276 6.28058 6.28315 0.000209957 6.27641 6.27534 0.000121845 6.28307 2.39331e-05 0.0170242 6.27963 0.00392666 6.19105 5.9053 0.334552 0.129563 6.28287 6.2271 0.000112187 6.28304 4.66271 6.27644 5.68734 0.00216583 0.0491914 0.000302036 
VECTORS cross_X float
1 0 0 1 0 0 1 0 0 1 0 0 1 0 0 1 0 0 1 0 0 1 0 0 1 0 0 1 0 0 0.291289 0.956635 0 0.441537 0.897243 0 0.608655 0.793435 0 0.775448 0.631412 0 0.897021 0.441987 0 0.962574 0.271021 0 0.271021 0.962574 0 0.441987 0.897021 0 0.631412 0.775448 0 0.793435 0.608655 0 0.897243 0.441537 0 0.956635 0.291289 0 1 0 0 1 0 0 1 0 0 1 0 0 1 0 0 1 0 0 1 0 0 1 0 0 1 0 0 1 0 0 1 0 0 1 0 0 1 0 0 1 0 0 1 0 0 1 0 0 1 0 0 1 0 0 1 0 0 1 0 0 1 0 0 1 0 0 1 0 0 1 0 0 1 0 0 1 0 0 1 0 0 1 0 0 1 0 0 1 0 0 1 0 0 1 0 0 1 0 0 1 0 0 1 0 0 1 0 0 1 0 0 1 0 0 1 0 0 1 0 0 1 0 0 1 0 0 1 0 0 1 0 0 1 0 0 1 0 0 1 0 0 1 0 0 1 0 0 1 0 0 1 0 0 1 0 0 1 0 0 1 0 0 1 0 0 1 0 0 1 0 0 1 0 0 1 0 0 1 0 0 1 0 0 1 0 0 1 0 0 1 0 0 1 0 0 1 0 0 1 0 0 1 0 0 1 0 0 1 0 0 1 0 0 1 0 0 0.99998 0.00627552 0 0.998164 0.0605683 0 0.0776791 0.996978 0 0.999846 0.017569 0 1 0.000291082 0 0.999968 0.00795594 0 0.00869136 0.999962 0 4.37615e-05 1 0 1 3.74214e-05 0 0.0633839 0.997989 0 0.998571 0.0534423 0 0.999996 0.00297808 0 0.0028145 0.999996 0 0.999999 0.00108094 0 0.00110093 0.999999 0 0.000260206 1 0 1 8.17585e-05 0 7.90566e-05 1 0 1 0.000256788 0 0.379332 0.925261 0 0.880475 0.474092 0 0.0126391 0.99992 0 0.999987 0.00508071 0 0.00915231 0.999958 0 0.0189913 0.99982 0 0.999845 0.0176046 0 0.000644321 1 0 1 0.000784216 0 0.97281 0.231604 0 0.597585 0.801805 0 1 0.000320294 0 0.00032533 1 0 0.298239 0.954491 0 0.974839 0.22291 0 0.000581499 1 0 1 0.000832502 0 0.0412709 0.999148 0 0.999506 0.0314405 0 0.995476 0.0950165 0 0.00322617 0.999995 0 0.999994 0.00331928 0 0.999964 0.00844729 0 0.0258415 0.999666 0 0.27664 0.960974 0 0.999995 0.00317349 0 0.00350976 0.999994 0 1.81496e-05 1 0 1 1.69978e-05 0 0.999933 0.0115345 0 9.63026e-05 1 0 1 1.21318e-05 0 1 7.88238e-05 0 1.16262e-05 1 0 0.999996 0.00267903 0 0.00353575 0.999994 0 0.0408043 0.999167 0 0.999274 0.0381023 0 0.0318934 0.999491 0 0.999967 0.00811175 0 0.00728177 0.999973 0 0.93231 0.36166 0 0.000277219 1 0 1 0.000291672 0 0.000347603 1 0 1 0.000289239 0 1 7.37078e-05 0 8.65788e-05 1 0 0.999976 0.00697912 0 0.00743048 0.999972 0 0.999924 0.0123073 0 0.0126392 0.99992 0 0.999999 0.00110119 0 0.00120677 0.999999 0 0.999731 0.0231943 0 0.0261559 0.999658 0 0.000104072 1 0 1 0.000109066 0 1 8.1997e-05 0 0.00318451 0.999995 0 1 6.78821e-06 0 2.4722e-06 1 0 0.0925948 0.995704 0 0.999995 0.00303981 0 0.000969395 1 0 0.210848 0.977519 0 0.981947 0.189158 0 0.999998 0.00202787 0 0.00275224 0.999996 0 0.00097691 1 0 1 0.00032682 0 0.000280631 1 0 0.999865 0.0164551 0 0.0168848 0.999857 0 0.560143 0.828396 0 1 0.000101074 0 0.000101374 1 0 0.000550114 1 0 1 0.000597216 0 1 0.000174339 0 0.775456 0.631402 0 0.00320018 0.999995 0 0.000194963 1 0 4.22633e-05 1 0 5.67532e-06 1 0 1 3.69741e-05 0 1 4.01018e-06 0 1 4.57056e-05 0 4.23306e-05 1 0 0.052523 0.99862 0 0.999999 0.0012376 0 0.233666 0.972317 0 0.999762 0.0218017 0 0.00232729 0.999997 0 0.999998 0.00208447 0 0.00239544 0.999997 0 0.972426 0.233213 0 0.114128 0.993466 0 0.996658 0.0816891 0 0.0293506 0.999569 0 0.999736 0.0229899 0 0.0475196 0.99887 0 0.997275 0.0737755 0 0.934206 0.356735 0 0.514218 0.85766 0 0.0327398 0.999464 0 0.999991 0.00430032 0 1 0.000720127 0 0.000801243 1 0 0.000160389 1 0 0.999991 0.00429741 0 0.0156977 0.999877 0 0.999999 0.00124246 0 0.0015706 0.999999 0 0.619453 0.785034 0 0.999963 0.00863936 0 0.00920391 0.999958 0 0.00738583 0.999973 0 0.999939 0.0110027 0 3.16407e-05 1 0 1 3.18293e-05 0 0.0450261 0.998986 0 0.999178 0.0405317 0 0.114971 0.993369 0 0.787815 0.615912 0 0.98844 0.15161 0 0.28627 0.958149 0 0.000445152 1 0 1 0.000547241 0 0.999992 0.00396638 0 1 0.000149445 0 0.868321 0.496002 0 0.00109237 0.999999 0 0.999999 0.00171282 0 0.968193 0.250206 0 0.999981 0.00620909 0 0.00626428 0.99998 0 0.999477 0.032345 0 0.999998 0.00175736 0 0.00160054 0.999999 0 0.999868 0.0162258 0 0.0166456 0.999861 0 0.999999 0.00160725 0 0.17199 0.985099 0 0.998367 0.0571288 0 0.000380168 1 0 0.00128154 0.999999 0 0.999997 0.00241619 0 0.00255263 0.999997 0 0.986004 0.16672 0 1 0.000414152 0 0.000422326 1 0 0.0145427 0.999894 0 0.000123266 1 0 1 0.000260165 0 0.0524158 0.998625 0 0.998778 0.0494139 0 0.0422048 0.999109 0 0.999598 0.0283621 0 0.000165392 1 0 1 0.000168311 0 0.0040112 0.999992 0 0.62949 0.777009 0 0.00153367 0.999999 0 0.999999 0.00144741 0 0.394515 0.918889 0 0.930636 0.365947 0 1 0.000571926 0 0.000571868 1 0 0.999942 0.0108094 0 0.011341 0.999936 0 1 6.43878e-06 0 6.73373e-06 1 0 1 0.000155657 0 0.000159993 1 0 0.999932 0.0116354 0 0.00599254 0.999982 0 0.999985 0.00552375 0 0.000148088 1 0 1 0.000139804 0 0.999982 0.00597014 0 1 0.000958649 0 8.31491e-06 1 0 1 9.25119e-06 0 1 4.19034e-05 0 0.999991 0.00429243 0 0.147246 0.9891 0 0.993428 0.114459 0 0.999669 0.0257174 0 0.999999 0.00153356 0 0.00164615 0.999999 0 0.0148069 0.99989 0 1 0.000377509 0 6.31954e-05 1 0 0.070524 0.99751 0 0.998484 0.0550486 0 1 1.28439e-05 0 1.34592e-05 1 0 6.40788e-06 1 0 1 6.16249e-06 0 0.00041246 1 0 1 0.000306468 0 0.340753 0.940153 0 0.00427967 0.999991 0 0.000711328 1 0 1 0.00069921 0 0.99999 0.00455335 0 0.00526606 0.999986 0 0.999947 0.0102902 0 0.011077 0.999939 0 1 0.000916333 0 0.988591 0.150626 0 1 0.000193514 0 3.28753e-05 1 0 1 2.4162e-05 0 1 0.00011182 0 0.000105297 1 0 0.000651391 1 0 9.28843e-06 1 0 1 5.24892e-05 0 0.00169279 0.999999 0 0.00196179 0.999998 0 1 3.04614e-05 0 2.87422e-05 1 0 1 5.98328e-06 0 0.999991 0.00425604 0 0.00088868 1 0 1 0.000981664 0 0.023033 0.999735 0 0.09433 0.995541 0 0.996504 0.0835406 0 0.999475 0.0323851 0 7.90118e-05 1 0 0.0140204 0.999902 0 1 2.80467e-05 0 3.59082e-05 1 0 0.394127 0.919056 0 0.00168641 0.999999 0 0.148411 0.988926 0 1 0.000541456 0 0.999924 0.0122975 0 1 7.55089e-05 0 
VECTORS VY float