# vtk DataFile Version 3.0
Generated by GMDS VTK Writer

ASCII
DATASET UNSTRUCTURED_GRID
POINTS 344 float
0 0 0
0 12 0
20 12 0
20 0 0
4 4 0
8 4 0
12 4 0
4 8.8 0
16 10.5 0
16 4 0
12.3429 4.92255 0
12.6611 5.854 0
12.9927 6.78074 0
13.3732 7.68828 0
13.8392 8.55461 0
14.4252 9.34399 0
15.1502 10.0072 0
0 1 0
0 2 0
0 3 0
0 4 0
0 5 0
0 6 0
0 7 0
0 8 0
0 9 0
0 10 0
0 11 0
1 12 0
2 12 0
3 12 0
4 12 0
5 12 0
6 12 0
7 12 0
8 12 0
9 12 0
10 12 0
11 12 0
12 12 0
13 12 0
14 12 0
15 12 0
16 12 0
17 12 0
18 12 0
19 12 0
20 11 0
20 10 0
20 9 0
20 8 0
20 7 0
20 6 0
20 5 0
20 4 0
20 3 0
20 2 0
20 1 0
19 0 0
18 0 0
17 0 0
16 0 0
15 0 0
14 0 0
13 0 0
12 0 0
11 0 0
10 0 0
9 0 0
8 0 0
7 0 0
6 0 0
5 0 0
4 0 0
3 0 0
2 0 0
1 0 0
4 4.96 0
4 5.92 0
4 6.88 0
4 7.84 0
7 4 0
6 4 0
5 4 0
16 9.57143 0
16 8.64286 0
16 7.71429 0
16 6.78571 0
16 5.85714 0
16 4.92857 0
15 4 0
14 4 0
13 4 0
4.84299 8.39689 0
5.62889 7.89156 0
6.33872 7.28423 0
6.94672 6.5753 0
7.42546 5.77346 0
7.77317 4.90641 0
9.89085 8.48923 0
7.5924 9.46796 0
9.99826 6.01978 0
10.017 2.53644 0
17.7254 2.35904 0
2.27637 2.36281 0
11.6841 9.62763 0
2.17643 9.81667 0
17.9268 4.4 0
17.9809 7.25 0
2.05054 4.43388 0
15.4474 1.78811 0
7.5 2 0
1.97508 7.28213 0
18.0193 9.15757 0
4.60496 1.98215 0
12.5282 2.00555 0
5.65558 10.1816 0
8.6596 7.1236 0
9.13785 10.3633 0
11.3822 7.16743 0
9.68585 4.2597 0
3.60092 10.4115 0
13.2618 10.4183 0
14 1.5625 0
6 1.5625 0
2.56588 5.93961 0
17.3798 5.85491 0
17.4267 10.6178 0
10.9166 1.38169 0
8.99226 1.41239 0
7.52863 8.08731 0
10.7003 10.6747 0
1.38561 8.64548 0
10.9534 4.83575 0
12.044 8.35788 0
18.6515 1.34848 0
8.8718 2.94425 0
1.34848 1.34848 0
9.07279 5.73772 0
18.6893 3.27373 0
16.7183 1.30999 0
1.34149 3.27853 0
3.28161 1.31023 0
11.3334 2.80779 0
2.72889 8.48034 0
6.79807 10.6491 0
6.32791 9.01461 0
18.7638 5.53976 0
18.7362 10.356 0
17.1918 8.26507 0
8.79827 8.67505 0
17.2223 3.51551 0
1.22769 5.53959 0
2.77123 3.52527 0
9.88502 7.2278 0
6.45833 2.78125 0
14.4583 2.78125 0
18.7569 8.25371 0
1.22241 10.6404 0
11.4713 6.11195 0
8.19912 10.7898 0
4.90758 10.7733 0
11.1529 8.87104 0
16.5318 2.54552 0
14.3288 10.9545 0
12.9486 9.30915 0
12.1648 10.838 0
4.70953 9.47559 0
3.47512 2.5466 0
2.7901 10.9272 0
5.28449 2.86263 0
13.2803 2.86265 0
9.96617 1.06062 0
1.13765 6.68467 0
10.5624 4.01015 0
18.9317 6.65097 0
10.265 9.40518 0
3.10187 9.32689 0
8.74042 4.76321 0
16.979 7.40385 0
1.06589 9.68449 0
17.069 4.93446 0
2.91678 4.9954 0
15.5927 2.78924 0
2.98801 7.5312 0
7.47323 2.97039 0
17.1958 9.65556 0
18.9697 4.55435 0
14.9293 1.11531 0
13.0435 1.07338 0
6.95646 1.07338 0
5.06836 1.12319 0
0.974314 4.51219 0
19.0417 9.42031 0
17.6813 0.985599 0
2.31868 0.985599 0
18.9812 2.30313 0
1.01517 7.75152 0
0.941961 2.45394 0
12.0209 1.09853 0
7.97665 1.06576 0
12.1803 3.04239 0
7.86332 6.49458 0
4.24741 2.94456 0
8.86305 3.77064 0
5.4647 9.11218 0
9.88868 10.9696 0
6.10844 11.0992 0
12.3408 7.57598 0
15.2904 10.9341 0
9.13217 7.91178 0
8.37623 9.64383 0
9.6399 5.14995 0
16.662 11.1544 0
9.28965 6.50991 0
6.74217 9.78434 0
15.8576 0.941328 0
6.60891 8.11798 0
4.14588 0.956384 0
16.7443 6.35612 0
10.6953 7.89954 0
3.22987 6.46443 0
10.6332 6.65879 0
9.39501 9.42122 0
9.68512 3.25742 0
18.2568 11.0805 0
19.2467 7.49624 0
11.3174 11.2135 0
3.5 11.2681 0
13.5 11.2785 0
19.1351 11.1351 0
18.0805 6.20396 0
12.1696 6.69802 0
12.9273 8.44041 0
7.45169 7.33135 0
14.0399 10.095 0
7.39278 11.1698 0
10.9512 9.8427 0
8.96193 11.1551 0
1.91168 6.26006 0
7.11906 8.85777 0
16.7308 8.88362 0
8.27532 7.94382 0
2.083 9.02476 0
8.31597 2.27625 0
11.6759 2.08208 0
18.0517 3.63664 0
9.24619 2.26824 0
3.22229 4.20903 0
16.7698 4.18291 0
16.5467 3.30717 0
17.8902 8.10644 0
5.32533 2.03951 0
13.3253 2.03951 0
10.7186 2.28046 0
18.0316 5.24791 0
3.93916 9.60028 0
10.6908 0.684815 0
9.29304 0.687948 0
1.94737 3.6473 0
1.98953 5.28363 0
14.7381 2.0019 0
6.78385 2.03954 0
3.3164 5.66421 0
19.2345 0.765524 0
0.76878 0.76878 0
11.5873 5.27883 0
2.02929 8.11924 0
12.3839 9.96837 0
13.7337 0.673668 0
6.26629 0.673668 0
18.006 10.0587 0
1.90146 11.208 0
10.6268 3.07183 0
3.47136 3.33883 0
16.6553 5.58117 0
10.5653 11.368 0
10.6473 5.54446 0
7.51679 10.2508 0
11.4471 8.05326 0
0.652628 8.55934 0
16.719 10.3428 0
17.4102 6.66664 0
11.5336 10.3608 0
19.2562 3.67041 0
2.80996 10.1725 0
17.4933 11.3958 0
3.43051 8.32 0
0.661897 3.51346 0
5.36941 11.3314 0
19.3893 1.50911 0
18.4762 0.601573 0
0.601573 1.52383 0
1.52383 0.601573 0
0.77856 11.2247 0
7.94832 8.77929 0
13.6976 9.51393 0
18.2412 1.98818 0
16.6062 0.628373 0
3.40753 0.623828 0
4.31898 11.2232 0
8.24129 5.69028 0
10.0321 10.1876 0
10.2978 4.76 0
12.7853 11.307 0
1.75486 1.99812 0
17.2779 1.82276 0
12.1901 9.09575 0
11.4818 4.431 0
16.5434 8.1798 0
19.4546 8.5 0
0.547484 10.5 0
15.9732 11.2091 0
2.72209 1.8245 0
2.57423 6.83073 0
8.2646 3.22605 0
5.9061 3.26913 0
13.9061 3.26913 0
11.3641 3.56053 0
16.2174 1.88013 0
18.0187 2.91071 0
3.78023 1.88455 0
11.3768 0.612576 0
8.59999 0.606571 0
6.71913 11.3341 0
19.4172 10.4304 0
1.98239 2.89515 0
0.721439 6.0567 0
8.62533 6.31122 0
19.3514 6.03155 0
18.5801 3.93213 0
5.84397 8.54184 0
5.56083 0.573627 0
14.439 0.573052 0
17.2205 2.74345 0
9.92781 1.82368 0
4.36176 10.2834 0
12.5161 0.54298 0
7.48328 0.534786 0
19.295 2.95766 0
1.39789 3.90562 0
17.4055 8.81365 0
2.78309 2.74886 0
1.92012 10.4854 0

CELLS 591 2364
3 167 336 116 
3 336 161 116 
3 319 110 183 
3 7 167 93 
3 163 319 183 
3 108 157 226 
3 107 151 249 
3 123 253 156 
3 124 252 155 
3 101 212 138 
3 53 187 147 
3 144 184 267 
3 21 152 192 
3 149 251 179 
3 101 138 214 
3 116 145 215 
3 53 147 329 
3 81 155 316 
3 90 156 317 
3 90 183 156 
3 154 220 222 
3 81 185 155 
3 21 327 152 
3 108 179 251 
3 113 193 157 
3 116 207 145 
3 116 146 205 
3 119 222 220 
3 93 167 205 
3 272 30 169 
3 29 30 272 
3 109 248 153 
3 107 246 151 
3 155 252 170 
3 156 253 171 
3 41 42 164 
3 112 267 184 
3 116 215 146 
3 113 157 251 
3 108 251 157 
3 116 161 289 
3 117 234 242 
3 13 208 233 
3 123 156 261 
3 124 155 262 
3 99 176 162 
3 128 335 254 
3 128 172 335 
3 185 315 244 
3 108 226 175 
3 238 37 206 
3 109 153 259 
3 156 183 261 
3 110 261 183 
3 155 185 262 
3 111 262 185 
3 36 37 238 
3 35 238 160 
3 25 180 280 
3 117 202 234 
3 116 289 207 
3 136 244 315 
3 117 210 154 
3 107 249 181 
3 109 192 260 
3 99 210 150 
3 152 260 192 
3 118 211 160 
3 134 233 208 
3 99 154 210 
3 99 150 223 
3 81 316 82 
3 90 317 91 
3 25 26 180 
3 152 239 260 
3 99 220 154 
3 119 232 159 
3 168 203 321 
3 23 197 173 
3 107 255 187 
3 117 154 214 
3 42 209 164 
3 101 214 154 
3 147 187 255 
3 92 171 201 
3 11 266 159 
3 136 224 247 
3 321 203 114 
3 101 154 222 
3 62 188 216 
3 72 218 191 
3 111 185 244 
3 19 288 198 
3 109 182 248 
3 125 260 239 
3 134 162 307 
3 83 170 203 
3 119 159 222 
3 209 42 312 
3 132 280 180 
3 105 307 162 
3 163 334 306 
3 101 277 212 
3 61 62 216 
3 103 306 334 
3 21 22 327 
3 72 73 218 
3 163 306 319 
3 277 303 212 
3 35 36 238 
3 168 321 313 
3 168 313 342 
3 152 173 239 
3 104 342 313 
3 95 217 234 
3 16 164 209 
3 5 98 178 
3 120 174 224 
3 113 271 193 
3 112 173 197 
3 11 159 232 
3 106 243 180 
3 28 272 294 
3 113 251 341 
3 132 180 243 
3 312 42 43 
3 23 24 197 
3 148 193 271 
3 59 60 194 
3 114 203 170 
3 141 198 288 
3 18 19 198 
3 74 75 195 
3 7 287 177 
3 60 298 194 
3 52 53 329 
3 74 195 299 
3 116 205 167 
3 115 201 171 
3 6 92 201 
3 140 319 306 
3 138 212 178 
3 118 160 238 
3 5 178 204 
3 16 235 164 
3 102 247 224 
3 144 177 287 
3 86 179 87 
3 48 193 325 
3 194 306 297 
3 144 287 184 
3 135 194 297 
3 10 308 266 
3 4 83 203 
3 48 49 193 
3 12 208 13 
3 142 313 321 
3 51 329 175 
3 9 183 90 
3 147 255 231 
3 106 177 243 
3 2 230 46 
3 2 47 230 
3 137 305 195 
3 5 185 81 
3 195 305 313 
3 35 160 236 
3 99 162 220 
3 23 173 327 
3 144 243 177 
3 158 294 272 
3 105 162 237 
3 136 204 224 
3 92 317 171 
3 83 316 170 
3 160 211 278 
3 111 200 190 
3 115 189 199 
3 39 166 227 
3 147 231 175 
3 79 184 80 
3 110 216 188 
3 134 279 162 
3 114 191 218 
3 6 308 10 
3 8 16 209 
3 45 46 225 
3 139 196 320 
3 106 180 343 
3 53 54 187 
3 196 297 320 
3 141 326 198 
3 89 181 249 
3 148 325 193 
3 120 204 178 
3 155 170 316 
3 156 171 317 
3 122 296 165 
3 198 326 305 
3 28 29 272 
3 51 52 329 
3 158 343 180 
3 119 208 232 
3 20 21 192 
3 140 194 298 
3 120 303 174 
3 122 229 164 
3 56 196 339 
3 126 231 255 
3 84 281 186 
3 142 299 195 
3 99 223 176 
3 100 211 295 
3 121 169 228 
3 130 234 217 
3 133 174 303 
3 41 164 229 
3 115 245 201 
3 98 301 178 
3 176 223 302 
3 112 197 267 
3 302 223 118 
3 46 230 225 
3 130 242 234 
3 67 172 257 
3 67 258 172 
3 55 56 339 
3 94 217 95 
3 77 248 182 
3 163 183 250 
3 7 256 167 
3 10 266 11 
3 22 23 327 
3 39 304 166 
3 152 327 173 
3 138 178 301 
3 111 244 200 
3 122 166 304 
3 122 164 235 
3 202 328 301 
3 30 228 169 
3 14 233 165 
3 115 199 245 
3 122 268 166 
3 43 44 213 
3 174 273 224 
3 143 201 245 
3 87 179 219 
3 14 165 296 
3 124 332 191 
3 123 188 333 
3 122 165 268 
3 150 295 211 
3 121 285 169 
3 162 176 237 
3 9 89 249 
3 126 255 181 
3 64 189 269 
3 70 270 190 
3 95 234 96 
3 147 175 329 
3 146 215 240 
3 84 186 241 
3 107 181 255 
3 8 281 84 
3 132 267 197 
3 91 317 92 
3 82 316 83 
3 15 235 16 
3 129 200 244 
3 77 182 263 
3 100 240 215 
3 115 171 253 
3 114 170 252 
3 120 178 212 
3 128 245 199 
3 32 289 300 
3 86 309 179 
3 113 186 271 
3 157 193 310 
3 97 202 301 
3 108 175 231 
3 149 179 309 
3 51 175 226 
3 129 335 172 
3 112 239 173 
3 133 308 174 
3 123 333 269 
3 124 270 332 
3 96 202 97 
3 4 248 77 
3 110 319 216 
3 127 271 186 
3 114 218 321 
3 166 268 283 
3 80 184 287 
3 128 257 172 
3 129 172 258 
3 105 283 268 
3 89 275 181 
3 63 64 269 
3 70 71 270 
3 161 300 289 
3 9 250 183 
3 125 182 260 
3 79 221 184 
3 109 260 182 
3 94 331 217 
3 3 264 57 
3 3 58 264 
3 38 39 227 
3 20 192 288 
3 0 17 265 
3 0 265 76 
3 123 189 253 
3 124 191 252 
3 114 252 191 
3 115 253 189 
3 84 241 85 
3 26 311 180 
3 77 263 78 
3 78 221 79 
3 121 300 336 
3 106 285 177 
3 43 213 312 
3 176 302 237 
3 54 55 284 
3 7 177 256 
3 131 237 302 
3 158 180 311 
3 121 256 177 
3 66 67 257 
3 67 68 258 
3 100 278 211 
3 110 188 261 
3 124 262 190 
3 111 190 262 
3 123 261 188 
3 5 315 185 
3 127 225 271 
3 118 238 206 
3 138 301 328 
3 121 177 285 
3 159 277 222 
3 126 181 275 
3 148 271 225 
3 93 331 94 
3 93 205 331 
3 119 279 208 
3 134 208 279 
3 87 219 88 
3 108 282 179 
3 88 275 89 
3 120 224 204 
3 31 32 300 
3 125 263 182 
3 122 235 296 
3 121 228 300 
3 39 40 304 
3 150 211 223 
3 145 236 278 
3 54 284 187 
3 113 341 186 
3 50 51 226 
3 133 266 308 
3 160 278 236 
3 49 310 193 
3 192 340 288 
3 100 215 278 
3 107 187 330 
3 6 201 318 
3 143 318 201 
3 118 223 211 
3 64 337 189 
3 70 190 338 
3 101 222 277 
3 127 186 281 
3 145 278 215 
3 124 190 270 
3 62 333 188 
3 72 191 332 
3 123 269 189 
3 1 28 294 
3 1 294 27 
3 55 339 284 
3 112 184 314 
3 133 303 277 
3 30 31 228 
3 109 340 192 
3 128 199 322 
3 129 323 200 
3 132 197 280 
3 11 232 12 
3 149 341 251 
3 135 291 194 
3 151 320 334 
3 157 310 226 
3 40 41 229 
3 24 280 197 
3 33 34 324 
3 12 232 208 
3 137 195 293 
3 59 194 291 
3 102 254 335 
3 135 196 290 
3 75 293 195 
3 33 324 207 
3 50 226 310 
3 96 234 202 
3 137 292 198 
3 140 216 319 
3 142 321 218 
3 151 246 320 
3 34 35 236 
3 18 198 292 
3 56 290 196 
3 13 233 14 
3 169 285 343 
3 150 210 242 
3 32 33 289 
3 103 297 306 
3 5 204 315 
3 148 225 230 
3 33 207 289 
3 140 306 194 
3 14 296 15 
3 135 297 196 
3 139 339 196 
3 161 336 300 
3 142 195 313 
3 122 304 229 
3 104 313 305 
3 137 198 305 
3 136 315 204 
3 153 342 326 
3 106 343 285 
3 65 322 199 
3 69 200 323 
3 146 217 331 
3 174 318 273 
3 4 203 274 
3 165 233 307 
3 78 263 221 
3 143 273 318 
3 9 249 250 
3 37 38 276 
3 153 326 259 
3 134 307 233 
3 65 199 337 
3 69 338 200 
3 190 200 338 
3 189 337 199 
3 168 274 203 
3 37 276 206 
3 117 242 210 
3 130 217 240 
3 146 240 217 
3 131 206 276 
3 7 80 287 
3 151 250 249 
3 102 224 273 
3 179 282 219 
3 24 25 280 
3 60 61 298 
3 73 74 299 
3 4 274 248 
3 44 45 286 
3 150 242 295 
3 56 57 290 
3 58 59 291 
3 165 307 268 
3 105 268 307 
3 125 314 221 
3 17 18 292 
3 75 76 293 
3 136 247 244 
3 19 20 288 
3 118 206 302 
3 65 66 322 
3 68 69 323 
3 153 248 274 
3 131 302 206 
3 103 320 297 
3 127 213 286 
3 104 305 326 
3 8 213 281 
3 133 277 266 
3 159 266 277 
3 126 275 219 
3 44 286 213 
3 129 244 247 
3 162 279 220 
3 49 50 310 
3 64 65 337 
3 69 70 338 
3 26 27 311 
3 97 301 98 
3 47 48 325 
3 143 245 254 
3 85 309 86 
3 128 254 245 
3 117 328 202 
3 144 267 243 
3 62 63 333 
3 71 72 332 
3 129 247 335 
3 145 207 324 
3 146 331 205 
3 126 219 282 
3 127 281 213 
3 125 221 263 
3 132 243 267 
3 8 209 312 
3 130 295 242 
3 128 322 257 
3 129 258 323 
3 88 219 275 
3 125 239 314 
3 151 334 250 
3 131 227 283 
3 131 276 227 
3 61 216 298 
3 119 220 279 
3 8 312 213 
3 73 299 218 
3 163 250 334 
3 38 227 276 
3 138 328 214 
3 117 214 328 
3 127 286 225 
3 126 282 231 
3 120 212 303 
3 108 231 282 
3 45 225 286 
3 141 288 340 
3 100 295 240 
3 131 283 237 
3 153 274 342 
3 140 298 216 
3 168 342 274 
3 102 273 254 
3 142 218 299 
3 166 283 227 
3 143 254 273 
3 121 336 256 
3 186 341 241 
3 184 221 314 
3 34 236 324 
3 105 237 283 
3 85 241 309 
3 31 300 228 
3 145 324 236 
3 149 309 241 
3 167 256 336 
3 40 229 304 
3 103 334 320 
3 112 314 239 
3 47 325 230 
3 15 296 235 
3 169 343 272 
3 130 240 295 
3 57 264 290 
3 58 291 264 
3 148 230 325 
3 17 292 265 
3 76 265 293 
3 135 290 264 
3 135 264 291 
3 104 326 342 
3 137 265 292 
3 137 293 265 
3 107 330 246 
3 139 284 339 
3 158 311 294 
3 109 259 340 
3 27 294 311 
3 139 246 330 
3 139 320 246 
3 66 257 322 
3 68 323 258 
3 149 241 341 
3 63 269 333 
3 71 332 270 
3 141 259 326 
3 102 335 247 
3 139 330 284 
3 174 308 318 
3 141 340 259 
3 6 318 308 
3 187 284 330 
3 158 272 343 

CELL_TYPES 591
5 
5 
5 
5 
5 
5 
5 
5 
5 
5 
5 
5 
5 
5 
5 
5 
5 
5 
5 
5 
5 
5 
5 
5 
5 
5 
5 
5 
5 
5 
5 
5 
5 
5 
5 
5 
5 
5 
5 
5 
5 
5 
5 
5 
5 
5 
5 
5 
5 
5 
5 
5 
5 
5 
5 
5 
5 
5 
5 
5 
5 
5 
5 
5 
5 
5 
5 
5 
5 
5 
5 
5 
5 
5 
5 
5 
5 
5 
5 
5 
5 
5 
5 
5 
5 
5 
5 
5 
5 
5 
5 
5 
5 
5 
5 
5 
5 
5 
5 
5 
5 
5 
5 
5 
5 
5 
5 
5 
5 
5 
5 
5 
5 
5 
5 
5 
5 
5 
5 
5 
5 
5 
5 
5 
5 
5 
5 
5 
5 
5 
5 
5 
5 
5 
5 
5 
5 
5 
5 
5 
5 
5 
5 
5 
5 
5 
5 
5 
5 
5 
5 
5 
5 
5 
5 
5 
5 
5 
5 
5 
5 
5 
5 
5 
5 
5 
5 
5 
5 
5 
5 
5 
5 
5 
5 
5 
5 
5 
5 
5 
5 
5 
5 
5 
5 
5 
5 
5 
5 
5 
5 
5 
5 
5 
5 
5 
5 
5 
5 
5 
5 
5 
5 
5 
5 
5 
5 
5 
5 
5 
5 
5 
5 
5 
5 
5 
5 
5 
5 
5 
5 
5 
5 
5 
5 
5 
5 
5 
5 
5 
5 
5 
5 
5 
5 
5 
5 
5 
5 
5 
5 
5 
5 
5 
5 
5 
5 
5 
5 
5 
5 
5 
5 
5 
5 
5 
5 
5 
5 
5 
5 
5 
5 
5 
5 
5 
5 
5 
5 
5 
5 
5 
5 
5 
5 
5 
5 
5 
5 
5 
5 
5 
5 
5 
5 
5 
5 
5 
5 
5 
5 
5 
5 
5 
5 
5 
5 
5 
5 
5 
5 
5 
5 
5 
5 
5 
5 
5 
5 
5 
5 
5 
5 
5 
5 
5 
5 
5 
5 
5 
5 
5 
5 
5 
5 
5 
5 
5 
5 
5 
5 
5 
5 
5 
5 
5 
5 
5 
5 
5 
5 
5 
5 
5 
5 
5 
5 
5 
5 
5 
5 
5 
5 
5 
5 
5 
5 
5 
5 
5 
5 
5 
5 
5 
5 
5 
5 
5 
5 
5 
5 
5 
5 
5 
5 
5 
5 
5 
5 
5 
5 
5 
5 
5 
5 
5 
5 
5 
5 
5 
5 
5 
5 
5 
5 
5 
5 
5 
5 
5 
5 
5 
5 
5 
5 
5 
5 
5 
5 
5 
5 
5 
5 
5 
5 
5 
5 
5 
5 
5 
5 
5 
5 
5 
5 
5 
5 
5 
5 
5 
5 
5 
5 
5 
5 
5 
5 
5 
5 
5 
5 
5 
5 
5 
5 
5 
5 
5 
5 
5 
5 
5 
5 
5 
5 
5 
5 
5 
5 
5 
5 
5 
5 
5 
5 
5 
5 
5 
5 
5 
5 
5 
5 
5 
5 
5 
5 
5 
5 
5 
5 
5 
5 
5 
5 
5 
5 
5 
5 
5 
5 
5 
5 
5 
5 
5 
5 
5 
5 
5 
5 
5 
5 
5 
5 
5 
5 
5 
5 
5 
5 
5 
5 
5 
5 
5 
5 
5 
5 
5 
5 
5 
5 
5 
5 
5 
5 
5 
5 
5 
5 
5 
5 
5 
5 
5 
5 
5 
5 
5 
5 
5 
5 
5 
5 
5 
5 
5 
5 
5 
5 
5 
5 
5 
5 
5 
5 
5 
5 
5 
5 
5 
5 
5 
5 
5 
5 
5 
5 
5 
5 
5 
5 
5 
5 
5 
5 
5 
5 
5 
5 
5 
5 
5 
5 
5 
5 
5 
5 
5 
5 
POINT_DATA 344
SCALARS GMDS_ID int 1
LOOKUP_TABLE default
0 1 2 3 4 5 6 7 8 9 10 11 12 13 14 15 16 17 18 19 20 21 22 23 24 25 26 27 28 29 30 31 32 33 34 35 36 37 38 39 40 41 42 43 44 45 46 47 48 49 50 51 52 53 54 55 56 57 58 59 60 61 62 63 64 65 66 67 68 69 70 71 72 73 74 75 76 77 78 79 80 81 82 83 84 85 86 87 88 89 90 91 92 93 94 95 96 97 98 99 100 101 102 103 104 105 106 107 108 109 110 111 112 113 114 115 116 117 118 119 120 121 122 123 124 125 126 127 128 129 130 131 132 133 134 135 136 137 138 139 140 141 142 143 144 145 146 147 148 149 150 151 152 153 154 155 156 157 158 159 160 161 162 163 164 165 166 167 168 169 170 171 172 173 174 175 176 177 178 179 180 181 182 183 184 185 186 187 188 189 190 191 192 193 194 195 196 197 198 199 200 201 202 203 204 205 206 207 208 209 210 211 212 213 214 215 216 217 218 219 220 221 222 223 224 225 226 227 228 229 230 231 232 233 234 235 236 237 238 239 240 241 242 243 244 245 246 247 248 249 250 251 252 253 254 255 256 257 258 259 260 261 262 263 264 265 266 267 268 269 270 271 272 273 274 275 276 277 278 279 280 281 282 283 284 285 286 287 288 289 290 291 292 293 294 295 296 297 298 299 300 301 302 303 304 305 306 307 308 309 310 311 312 313 314 315 316 317 318 319 320 321 322 323 324 325 326 327 328 329 330 331 332 333 334 335 336 337 338 339 340 341 342 343 
SCALARS angle float 1
LOOKUP_TABLE default
0 0 0 0 0 0 0 0 0 0 4.91303 4.93762 4.80203 4.50208 4.01892 3.34622 2.53291 0 0 0 0 0 0 0 0 0 0 0 0 0 0 0 0 0 0 0 0 0 0 0 0 0 0 0 0 0 0 0 0 0 0 0 0 0 0 0 0 0 0 0 0 0 0 0 0 0 0 0 0 0 0 0 0 0 0 0 0 0 0 0 0 0 0 0 0 0 0 0 0 0 0 0 0 4.24821 3.72482 3.14394 2.49432 1.83928 1.25322 5.83141 6.14781 6.12172 0.0111923 6.28305 0.000203134 5.4443 6.27209 6.28314 6.28315 6.28299 6.28251 0.0123052 6.28083 6.28307 0.001551 6.27827 6.06938 1.30213 6.18923 5.11269 0.118143 6.24634 5.4238 6.28151 0.00396556 6.2824 6.28316 6.28274 6.28205 0.011229 1.55398 6.09528 6.27917 5.86344 4.79771 6.28313 0.0460742 9.80788e-05 0.953765 6.28313 6.28294 2.04798e-06 0.000498816 6.26516 6.27684 6.19251 5.57443 6.28317 6.28305 6.28312 6.1916 6.28308 6.28277 9.04352e-05 5.88364 0.00533969 6.28223 6.28315 6.27799 5.19244 6.22903 6.20159 5.37511 6.2829 6.06264 4.41484 6.03247 6.0829 0.000536162 6.269 0.00176786 6.28022 0.00391668 6.28223 6.20889 6.28317 5.88688 6.26611 0.855163 6.28315 6.2783 6.28316 6.28293 6.28264 6.28054 0.0187179 6.28298 6.28315 6.28237 6.28129 0.00464285 0.00189454 6.28302 6.28312 6.28308 0.000209907 6.28314 6.28123 4.23842e-05 6.28067 0.00681583 6.27237 2.10842 0.000895207 0.135987 5.24618 6.20025 6.22527 4.81614 6.24663 0.00587292 6.17618 0.279889 6.28097 0.68158 6.06249 6.28282 4.28874 0.000811033 6.28317 5.37648 6.28213 5.47133 6.07821 0.0399582 6.28298 6.28317 6.15321 6.26354 6.10621 6.2831 6.28316 4.92078 4.40405 2.31393 3.9576 6.23135 5.82542 6.24895 6.28216 5.97662 6.28311 0.837529 6.2754 0.0220678 6.27572 6.28311 0.0218386 6.28315 6.28314 6.28302 6.28313 0.00251423 6.28033 6.2795 6.28316 6.24018 0.000550684 0.00448265 6.28316 6.28274 6.28216 0.00741695 6.28283 6.28316 3.60089e-05 5.23964 6.27885 5.35082 6.28219 0.00235984 6.28297 6.27861 6.26701 0.000253639 6.28317 6.21383 5.72693 6.18595 5.06024 6.28165 6.28279 6.28316 5.89378 6.28314 6.26476 6.28278 6.28037 6.28317 6.23299 6.28316 6.28315 3.85113e-05 6.86827e-05 6.28046 6.2636 3.75347 6.28309 6.28303 0.000327524 6.24813 1.50821 6.08959 6.15042 6.16161 0.000144407 6.283 4.85476 6.0549 6.28315 6.28317 6.28063 6.27678 0.0003413 6.28143 0.035451 0.0019629 6.28213 6.23798 6.28279 6.28308 0.000821077 6.28236 0.00463125 6.24754 6.28312 9.70085e-05 6.28282 1.44863 6.28318 6.28313 4.86374 0.00145401 6.28256 6.28301 0.00797691 6.2067 6.28237 0.00207454 6.28316 6.28311 6.28308 0.000262616 6.27456 
VECTORS cross_X float
1 0 0 1 0 0 1 0 0 1 0 0 1 0 0 1 0 0 1 0 0 1 0 0 1 0 0 1 0 0 0.33588 0.941905 0 0.330084 0.943952 0 0.361884 0.932223 0 0.430708 0.902491 0 0.536317 0.844017 0 0.670024 0.74234 0 0.806122 0.591749 0 1 0 0 1 0 0 1 0 0 1 0 0 1 0 0 1 0 0 1 0 0 1 0 0 1 0 0 1 0 0 1 0 0 1 0 0 1 0 0 1 0 0 1 0 0 1 0 0 1 0 0 1 0 0 1 0 0 1 0 0 1 0 0 1 0 0 1 0 0 1 0 0 1 0 0 1 0 0 1 0 0 1 0 0 1 0 0 1 0 0 1 0 0 1 0 0 1 0 0 1 0 0 1 0 0 1 0 0 1 0 0 1 0 0 1 0 0 1 0 0 1 0 0 1 0 0 1 0 0 1 0 0 1 0 0 1 0 0 1 0 0 1 0 0 1 0 0 1 0 0 1 0 0 1 0 0 1 0 0 1 0 0 1 0 0 1 0 0 1 0 0 1 0 0 1 0 0 1 0 0 1 0 0 1 0 0 1 0 0 1 0 0 1 0 0 1 0 0 1 0 0 1 0 0 1 0 0 1 0 0 1 0 0 1 0 0 1 0 0 1 0 0 1 0 0 1 0 0 0.48708 0.873357 0 0.596867 0.80234 0 0.706691 0.707522 0 0.811794 0.583944 0 0.896133 0.443786 0 0.95132 0.308204 0 0.112704 0.993629 0 0.0338375 0.999427 0 0.0403546 0.999185 0 0.999996 0.00279807 0 3.40757e-05 1 0 1 5.07834e-05 0 0.208187 0.978089 0 0.00277261 0.999996 0 1.23423e-05 1 0 8.00078e-06 1 0 4.76422e-05 1 0 0.000168716 1 0 0.999995 0.00307629 0 0.000589975 1 0 2.90718e-05 1 0 1 0.000387749 0 0.00122795 0.999999 0 0.053426 0.998572 0 0.947481 0.319813 0 0.023486 0.999724 0 0.288465 0.957491 0 0.999564 0.0295315 0 0.00921084 0.999958 0 0.213197 0.977009 0 0.000418507 1 0 1 0.000991389 0 0.000195917 1 0 5.59783e-06 1 0 0.000112183 1 0 0.000282897 1 0 0.999996 0.00280724 0 0.92548 0.378796 0 0.0469599 0.998897 0 0.00100498 0.999999 0 0.104744 0.994499 0 0.362891 0.931832 0 1.48271e-05 1 0 0.999934 0.0115183 0 1 2.45197e-05 0 0.971707 0.236188 0 1.45326e-05 1 0 6.16642e-05 1 0 1 5.11996e-07 0 1 0.000124704 0 0.00450624 0.99999 0 0.00158632 0.999999 0 0.0226671 0.999743 0 0.176262 0.984343 0 4.43855e-06 1 0 3.45109e-05 1 0 1.52703e-05 1 0 0.0228951 0.999738 0 2.6909e-05 1 0 0.000103696 1 0 1 2.26088e-05 0 0.0997212 0.995015 0 0.999999 0.00133492 0 0.00023837 1 0 9.32135e-06 1 0 0.00129854 0.999999 0 0.269319 0.963051 0 0.0135389 0.999908 0 0.0203967 0.999792 0 0.225074 0.974342 0 7.21892e-05 1 0 0.0551076 0.99848 0 0.450286 0.892884 0 0.0626383 0.998036 0 0.0500501 0.998747 0 1 0.000134041 0 0.0035463 0.999994 0 1 0.000441966 0 0.000740226 1 0 1 0.000979169 0 0.000238979 1 0 0.018574 0.999827 0 3.62225e-06 1 0 0.0989153 0.995096 0 0.00426905 0.999991 0 0.977234 0.212166 0 7.89465e-06 1 0 0.00122248 0.999999 0 7.52093e-06 1 0 6.291e-05 1 0 0.00013556 1 0 0.000661402 1 0 0.999989 0.00467945 0 5.15246e-05 1 0 8.4289e-06 1 0 0.000205061 1 0 0.000473186 1 0 0.999999 0.00116071 0 1 0.000473635 0 4.18431e-05 1 0 1.63548e-05 1 0 2.75157e-05 1 0 1 5.24769e-05 0 1.14943e-05 1 0 0.000488931 1 0 1 1.05961e-05 0 0.000627846 1 0 0.999999 0.00170396 0 0.0027028 0.999996 0 0.864267 0.503034 0 1 0.000223802 0 0.999422 0.0339903 0 0.256356 0.966582 0 0.0207316 0.999785 0 0.0144792 0.999895 0 0.358594 0.933494 0 0.00913948 0.999958 0 0.999999 0.00146823 0 0.0267487 0.999642 0 0.997553 0.0699152 0 0.000553321 1 0 0.985518 0.169572 0 0.055146 0.998478 0 9.01772e-05 1 0 0.478207 0.878247 0 1 0.000202758 0 4.35103e-06 1 0 0.224741 0.974418 0 0.000263369 1 0 0.201573 0.979473 0 0.051221 0.998687 0 0.99995 0.00998939 0 5.14499e-05 1 0 4.30738e-06 1 0 0.032489 0.999472 0 0.00491053 0.999988 0 0.0442298 0.999021 0 2.22793e-05 1 0 5.47528e-06 1 0 0.334053 0.942554 0 0.452694 0.891666 0 0.837293 0.546754 0 0.549191 0.835697 0 0.012958 0.999916 0 0.114192 0.993459 0 0.00855927 0.999963 0 0.000255812 1 0 0.0765667 0.997064 0 1.94305e-05 1 0 0.97816 0.207856 0 0.0019469 0.999998 0 0.999985 0.00551692 0 0.00186564 0.999998 0 1.90654e-05 1 0 0.999985 0.00545963 0 8.97787e-06 1 0 1.22649e-05 1 0 4.03335e-05 1 0 1.36107e-05 1 0 1 0.000628558 0 0.000714763 1 0 0.000920137 1 0 7.21299e-06 1 0 0.0107499 0.999942 0 1 0.000137671 0 0.999999 0.00112066 0 5.2656e-06 1 0 0.000112552 1 0 0.000256661 1 0 0.999998 0.00185424 0 8.80601e-05 1 0 5.33494e-06 1 0 1 9.00223e-06 0 0.257938 0.966162 0 0.00108459 0.999999 0 0.230986 0.972957 0 0.000248609 1 0 1 0.000589961 0 5.47337e-05 1 0 0.00114335 0.999999 0 0.00404378 0.999992 0 1 6.34097e-05 0 3.45063e-06 1 0 0.0173385 0.99985 0 0.138616 0.990346 0 0.0243064 0.999705 0 0.300996 0.953625 0 0.00038273 1 0 9.98555e-05 1 0 6.31766e-06 1 0 0.0971985 0.995265 0 1.03159e-05 1 0 0.00460734 0.999989 0 0.000100657 1 0 0.000703374 1 0 4.13503e-06 1 0 0.0125481 0.999921 0 6.68271e-06 1 0 9.47824e-06 1 0 1 9.62783e-06 0 1 1.71707e-05 0 0.000682057 1 0 0.00489597 0.999988 0 0.591106 0.806594 0 2.38547e-05 1 0 3.95521e-05 1 0 1 8.1881e-05 0 0.00876304 0.999962 0 0.929754 0.368181 0 0.0483805 0.998829 0 0.0331858 0.999449 0 0.0303901 0.999538 0 1 3.61018e-05 0 4.69355e-05 1 0 0.349566 0.936912 0 0.0570412 0.998372 0 8.46988e-06 1 0 3.82867e-06 1 0 0.00063809 1 0 0.00160228 0.999999 0 1 8.5325e-05 0 0.000439763 1 0 0.999961 0.00886264 0 1 0.000490726 0 0.000264019 1 0 0.0113023 0.999936 0 9.97575e-05 1 0 2.54937e-05 1 0 1 0.000205269 0 0.000205301 1 0 0.999999 0.00115781 0 0.00891195 0.99996 0 1.59907e-05 1 0 1 2.42521e-05 0 9.2471e-05 1 0 0.935134 0.354293 0 1.90911e-06 1 0 1.34374e-05 1 0 0.347459 0.937695 0 1 0.000363502 0 0.000156739 1 0 4.28418e-05 1 0 0.999998 0.00199423 0 0.0191195 0.999817 0 0.000203135 1 0 1 0.000518634 0 6.47363e-06 1 0 1.93704e-05 1 0 2.50969e-05 1 0 1 6.56541e-05 0 0.00215619 0.999998 0 
VECTORS VY float