# vtk DataFile Version 3.0
Generated by GMDS VTK Writer

ASCII
DATASET UNSTRUCTURED_GRID
POINTS 350 float
0 0 0
0 12 0
20 12 0
20 0 0
4 4 0
4 8 0
8 4 0
12 4 0
16 8.6 0
16 4 0
4.85698 7.80718 0
5.67582 7.48974 0
6.4265 7.03486 0
7.05975 6.42822 0
7.52561 5.68498 0
7.83138 4.86199 0
12.1455 4.92722 0
12.4331 5.82034 0
12.8837 6.64258 0
13.5086 7.34116 0
14.266 7.89444 0
15.107 8.31084 0
4 5 0
4 6 0
4 7 0
7 4 0
6 4 0
5 4 0
16 7.68 0
16 6.76 0
16 5.84 0
16 4.92 0
15 4 0
14 4 0
13 4 0
1 12 0
2 12 0
3 12 0
4 12 0
5 12 0
6 12 0
7 12 0
8 12 0
9 12 0
10 12 0
11 12 0
12 12 0
13 12 0
14 12 0
15 12 0
16 12 0
17 12 0
18 12 0
19 12 0
20 11 0
20 10 0
20 9 0
20 8 0
20 7 0
20 6 0
20 5 0
20 4 0
20 3 0
20 2 0
20 1 0
19 0 0
18 0 0
17 0 0
16 0 0
15 0 0
14 0 0
13 0 0
12 0 0
11 0 0
10 0 0
9 0 0
8 0 0
7 0 0
6 0 0
5 0 0
4 0 0
3 0 0
2 0 0
1 0 0
0 1 0
0 2 0
0 3 0
0 4 0
0 5 0
0 6 0
0 7 0
0 8 0
0 9 0
0 10 0
0 11 0
9.86759 8.39916 0
7.30686 9.40548 0
9.88747 6.09421 0
9.98283 2.60625 0
12.2256 9.44693 0
2.36017 9.52921 0
17.7259 2.35801 0
2.33333 2.33333 0
4.87886 9.90528 0
18.1062 10.0891 0
17.9464 4.41498 0
2.0059 7.71444 0
7.52781 1.97456 0
18.11 7.18331 0
15.4757 1.96973 0
12.5235 1.91196 0
1.98658 5.68609 0
4.57499 2.02192 0
14.107 10.1355 0
9.58349 4.39709 0
8.18986 7.86122 0
9.08219 10.1064 0
11.3199 7.07468 0
15.803 10.3 0
10.6813 10.3595 0
1.56322 3.89689 0
6.00105 8.99883 0
6.2303 10.4929 0
3.53371 10.5913 0
6 2.4375 0
14.0245 2.40282 0
17.4053 5.83506 0
10.9247 1.38591 0
9.0048 1.46838 0
18.5914 8.56218 0
8.59621 6.5264 0
12.3701 8.05266 0
8.81997 2.87869 0
10.8224 5.13503 0
11.3606 2.7967 0
3.64651 9.27555 0
1.36831 10.6154 0
18.6515 1.34848 0
18.6851 3.27743 0
7.04751 8.1382 0
13.4863 8.85171 0
1.41831 1.29481 0
16.6898 1.29599 0
13.0879 10.6333 0
17.3186 8.33277 0
1.35544 8.89355 0
3.27244 1.37479 0
7.94147 10.6191 0
11.1409 8.60979 0
18.7244 5.66113 0
9.00085 5.24213 0
9.64348 7.51201 0
17.2217 3.51401 0
8.64116 8.91226 0
18.6852 10.6691 0
2.72234 6.58599 0
1.27433 6.49875 0
14.4583 1.21875 0
6.45833 1.21875 0
16.9482 10.8486 0
3.50956 2.95353 0
2.81389 4.7401 0
2.74373 8.17143 0
16.687 9.54101 0
1.17911 2.89474 0
10.7959 3.77923 0
11.341 6.15149 0
4.45676 8.8892 0
16.5311 2.54464 0
14.9622 9.31469 0
11.564 10.9356 0
13.2899 1.13498 0
5.28096 1.14008 0
2.46677 10.9697 0
9.96863 1.06779 0
14.8402 10.8849 0
4.52762 10.9467 0
18.9832 9.56374 0
19.0699 6.48281 0
1.17229 4.914 0
10.0275 9.60934 0
16.6937 7.19963 0
17.0686 4.91951 0
9.70743 10.9943 0
7.47722 2.97072 0
15.6104 2.86016 0
12.4445 3.01446 0
19.0142 4.65256 0
2.55991 3.51738 0
8.955 3.64586 0
5.04354 2.92662 0
15.5917 1.06779 0
7.43733 1.05989 0
11.9639 1.08039 0
0.9802 7.47147 0
7.51277 7.3006 0
17.6623 0.968866 0
18.9816 2.30219 0
2.31868 0.985599 0
3.12783 5.7236 0
19.0243 7.67749 0
4.18956 1.02399 0
13.9263 11.0504 0
0.841237 9.61333 0
5.57271 11.1871 0
10.3633 6.7359 0
8.61902 11.1473 0
9.93267 5.31918 0
14.3435 8.77931 0
12.1419 7.20056 0
9.09576 8.14468 0
7.75313 8.69891 0
9.99966 3.51321 0
8.10573 9.69924 0
10.6253 7.90191 0
3.24983 7.5 0
11.2852 9.61231 0
17.8348 11.0559 0
7.02279 11.0427 0
13.0975 9.64817 0
5.75705 9.78738 0
6.51452 3.12527 0
14.4577 3.07233 0
13.542 3.07502 0
16.7015 6.30312 0
0.825741 5.76648 0
8.31774 5.82393 0
2.06124 8.71956 0
16.1617 11.1199 0
0.785073 3.64991 0
8.67414 4.42941 0
6.31312 8.07887 0
5.43388 8.40796 0
6.54871 9.54153 0
18.1253 6.23422 0
8.3891 0.794272 0
10.664 11.2 0
7.83308 6.58491 0
13.1768 8.07691 0
17.7044 9.12101 0
11.322 4.46732 0
7.07627 10.23 0
4.05432 9.93315 0
8.82444 7.31734 0
15.9299 9.48819 0
9.23209 2.25127 0
0.802692 1.97893 0
8.32142 2.32617 0
2.99129 9.96823 0
10.7254 2.27167 0
11.6759 2.08208 0
1.92659 3.02504 0
2.01918 4.55089 0
11.5782 7.94367 0
18.087 3.63636 0
9.13469 5.99018 0
4.28076 3.0951 0
16.5476 3.31477 0
16.7974 4.18054 0
10.624 5.87684 0
18.0156 8.01413 0
18.0179 5.25567 0
1.96243 6.87175 0
13.3253 1.96049 0
5.32533 1.96049 0
12.4998 11.2276 0
11.5431 5.40781 0
10.6941 0.686787 0
9.27461 0.69468 0
12.6871 8.80625 0
0.776921 11.2231 0
9.42557 3.0002 0
6.76504 2.04778 0
14.6862 2 0
19.2345 0.765524 0
3.5 11.3732 0
0.790807 0.812553 0
16.6351 5.56354 0
5.30552 9.19773 0
12.0256 6.54311 0
10.4015 8.86726 0
3.75603 2.08221 0
19.36 8.52211 0
17.4122 6.7098 0
5.77956 3.2336 0
16.7013 8.05423 0
2.89691 9.03664 0
19.2585 3.65223 0
0.663636 8.50648 0
6.85713 8.84976 0
12.2503 10.2602 0
16.5 0.595825 0
6.28313 11.2612 0
10.4093 4.43518 0
3.35614 0.676876 0
15.4359 11.3685 0
19.2799 11.2799 0
1.52346 11.3889 0
0.597293 10.4904 0
19.3893 1.50904 0
18.4762 0.601573 0
2.12417 10.1759 0
15.0709 10.1796 0
3.53792 8.51655 0
9.49141 9.03813 0
1.52383 0.601573 0
8.27168 3.20604 0
11.8812 8.74527 0
5.39331 10.4639 0
12.803 7.48682 0
1.74821 2.03541 0
10.6879 3.03964 0
9.34255 6.68262 0
16.7678 8.83029 0
18.2403 1.98689 0
1.67053 9.55472 0
11.458 3.52065 0
11.3552 0.621648 0
18.5034 11.4433 0
19.444 10.5 0
17.2743 1.82011 0
12.626 0.754849 0
3.26182 4.06593 0
5.9061 0.73087 0
13.9061 0.73087 0
2.5425 1.80459 0
18.0218 2.90871 0
16.2167 1.87892 0
0.704117 4.29216 0
16.5037 10.2218 0
9.97309 1.84188 0
13.3028 11.3823 0
18.5776 3.9761 0
8.10405 1.49738 0
1.41328 8.2611 0
7.66767 11.3667 0
19.4375 5.52161 0
0.555795 6.51725 0
3.47876 6.5 0
9.87461 10.2674 0
17.2204 2.74337 0
6.84383 7.47003 0
17.2974 10.1462 0
19.2955 2.95583 0
13.9993 9.34588 0
2.53684 7.36872 0
17.3902 7.61099 0
14.5 11.5026 0
8.17869 7.13894 0
3.03985 2.29383 0

CELLS 607 2428
3 161 188 252 
3 252 188 120 
3 327 109 185 
3 186 223 263 
3 168 327 185 
3 119 170 216 
3 105 152 258 
3 114 230 150 
3 45 46 170 
3 20 238 140 
3 342 104 239 
3 104 154 177 
3 115 195 139 
3 104 217 154 
3 20 140 208 
3 124 158 264 
3 125 157 263 
3 45 170 236 
3 113 219 143 
3 170 290 216 
3 43 183 206 
3 15 226 150 
3 113 143 202 
3 163 342 239 
3 43 44 183 
3 8 21 169 
3 110 186 263 
3 184 272 221 
3 84 246 276 
3 116 213 147 
3 15 150 230 
3 132 247 306 
3 184 306 247 
3 185 273 222 
3 69 324 157 
3 77 323 158 
3 127 330 249 
3 115 139 211 
3 51 217 159 
3 119 216 180 
3 116 147 206 
3 105 254 152 
3 69 157 191 
3 77 158 192 
3 135 242 167 
3 127 174 330 
3 180 216 280 
3 163 239 313 
3 117 166 205 
3 158 172 264 
3 157 171 263 
3 115 211 153 
3 134 186 250 
3 125 273 157 
3 124 272 158 
3 22 161 199 
3 107 272 184 
3 84 85 246 
3 105 258 182 
3 115 153 210 
3 109 273 185 
3 95 214 151 
3 8 169 244 
3 114 150 207 
3 106 262 194 
3 51 159 228 
3 111 262 155 
3 111 156 262 
3 103 167 242 
3 102 188 349 
3 110 321 193 
3 110 171 321 
3 160 256 281 
3 96 241 213 
3 158 272 192 
3 157 273 191 
3 109 191 273 
3 107 192 272 
3 95 151 210 
3 104 342 217 
3 92 203 288 
3 147 213 241 
3 281 256 112 
3 86 164 246 
3 4 160 322 
3 79 201 172 
3 148 214 280 
3 116 304 153 
3 55 56 177 
3 69 70 324 
3 77 78 323 
3 106 227 162 
3 153 211 213 
3 5 167 10 
3 59 336 178 
3 156 194 262 
3 123 248 173 
3 104 177 239 
3 173 248 301 
3 145 288 203 
3 111 155 199 
3 111 225 156 
3 58 59 178 
3 56 282 177 
3 105 261 187 
3 129 239 177 
3 111 199 161 
3 107 184 247 
3 116 153 213 
3 149 187 261 
3 12 341 13 
3 142 191 327 
3 114 189 230 
3 108 200 178 
3 117 279 166 
3 110 250 186 
3 148 253 214 
3 114 212 189 
3 36 37 173 
3 160 349 188 
3 149 178 336 
3 4 256 160 
3 22 322 161 
3 96 213 211 
3 102 251 188 
3 67 291 196 
3 166 259 205 
3 135 167 303 
3 168 340 320 
3 141 276 246 
3 81 198 294 
3 101 320 340 
3 58 178 200 
3 341 195 13 
3 95 280 214 
3 168 320 327 
3 198 310 325 
3 141 310 198 
3 11 231 12 
3 142 291 191 
3 103 242 176 
3 38 39 176 
3 51 52 217 
3 5 303 167 
3 134 316 186 
3 159 217 342 
3 85 86 246 
3 79 80 201 
3 160 188 322 
3 111 161 252 
3 90 194 337 
3 12 231 341 
3 129 177 282 
3 119 236 170 
3 123 176 242 
3 88 225 179 
3 6 184 25 
3 86 229 164 
3 136 301 315 
3 66 67 196 
3 92 93 203 
3 113 169 344 
3 81 82 198 
3 142 196 291 
3 189 212 271 
3 136 315 203 
3 142 327 320 
3 14 237 226 
3 28 181 29 
3 97 312 205 
3 38 176 275 
3 156 337 194 
3 112 172 201 
3 112 256 190 
3 37 275 173 
3 90 91 194 
3 42 43 206 
3 196 320 314 
3 137 196 314 
3 116 206 183 
3 146 294 198 
3 123 173 275 
3 9 185 32 
3 114 293 212 
3 50 51 228 
3 22 199 23 
3 108 260 200 
3 117 209 279 
3 42 206 335 
3 165 212 293 
3 106 162 345 
3 123 275 176 
3 100 301 248 
3 21 208 169 
3 57 58 200 
3 17 266 166 
3 169 208 344 
3 7 34 186 
3 113 202 175 
3 111 179 225 
3 116 180 304 
3 17 166 279 
3 151 205 312 
3 71 171 324 
3 79 172 323 
3 120 164 229 
3 88 89 225 
3 118 175 295 
3 33 222 223 
3 150 255 207 
3 106 334 227 
3 120 251 164 
3 39 204 176 
3 97 207 255 
3 31 182 258 
3 138 197 326 
3 149 261 234 
3 60 61 187 
3 125 263 223 
3 149 234 178 
3 197 314 326 
3 7 186 316 
3 158 323 172 
3 157 324 171 
3 117 214 253 
3 120 328 179 
3 5 215 303 
3 19 238 20 
3 146 281 201 
3 71 321 171 
3 10 167 232 
3 112 201 281 
3 14 226 15 
3 68 69 191 
3 76 77 192 
3 109 327 191 
3 63 197 343 
3 74 174 267 
3 74 268 174 
3 99 216 290 
3 168 185 257 
3 136 173 301 
3 10 232 11 
3 4 322 22 
3 136 297 173 
3 62 63 343 
3 11 232 231 
3 29 181 224 
3 162 303 215 
3 126 261 182 
3 103 176 308 
3 9 31 258 
3 36 173 297 
3 125 223 222 
3 113 302 169 
3 105 182 261 
3 127 250 193 
3 124 221 272 
3 126 234 261 
3 125 222 273 
3 128 330 174 
3 169 302 244 
3 13 237 14 
3 151 214 205 
3 121 289 231 
3 118 244 302 
3 44 236 183 
3 130 226 237 
3 118 302 175 
3 110 193 250 
3 99 307 216 
3 28 285 181 
3 113 175 302 
3 78 79 323 
3 70 71 324 
3 129 200 260 
3 27 190 256 
3 110 263 171 
3 112 264 172 
3 55 177 319 
3 108 178 234 
3 127 267 174 
3 128 174 268 
3 27 284 190 
3 103 278 167 
3 46 265 170 
3 153 304 210 
3 154 319 177 
3 6 306 184 
3 120 229 328 
3 39 40 204 
3 118 295 228 
3 20 208 21 
3 147 335 206 
3 148 216 307 
3 31 277 182 
3 86 87 229 
3 9 257 185 
3 95 210 304 
3 165 316 311 
3 144 313 239 
3 97 205 259 
3 149 336 187 
3 25 184 221 
3 1 270 94 
3 1 35 270 
3 111 252 179 
3 3 274 64 
3 3 65 274 
3 116 339 180 
3 4 27 256 
3 139 231 289 
3 5 24 215 
3 119 180 339 
3 0 84 276 
3 0 276 83 
3 32 185 222 
3 116 183 339 
3 34 223 186 
3 68 191 291 
3 162 215 345 
3 60 187 336 
3 6 230 189 
3 26 284 27 
3 120 179 252 
3 119 339 183 
3 124 264 190 
3 112 190 264 
3 25 221 26 
3 88 179 328 
3 32 222 33 
3 119 183 236 
3 33 223 34 
3 8 244 313 
3 6 189 306 
3 133 207 259 
3 44 45 236 
3 97 259 207 
3 117 205 214 
3 164 251 310 
3 61 62 287 
3 75 76 235 
3 73 74 267 
3 74 75 268 
3 117 253 209 
3 48 202 331 
3 126 182 277 
3 16 266 17 
3 102 310 251 
3 132 189 271 
3 131 209 253 
3 6 15 230 
3 133 259 266 
3 113 344 219 
3 166 266 259 
3 132 306 189 
3 122 233 220 
3 148 280 216 
3 163 313 244 
3 13 195 237 
3 140 269 219 
3 181 346 283 
3 134 311 316 
3 40 41 292 
3 29 224 30 
3 99 219 269 
3 181 285 346 
3 76 192 235 
3 143 290 265 
3 120 188 251 
3 170 265 290 
3 122 241 233 
3 47 48 331 
3 108 283 346 
3 127 193 317 
3 30 277 31 
3 105 187 332 
3 165 311 212 
3 176 204 308 
3 155 215 338 
3 72 193 321 
3 2 296 53 
3 2 54 296 
3 61 287 187 
3 118 329 244 
3 98 249 330 
3 91 288 194 
3 7 240 16 
3 102 325 310 
3 139 289 211 
3 41 218 292 
3 124 190 284 
3 129 282 200 
3 165 240 316 
3 95 304 280 
3 161 322 188 
3 7 316 240 
3 106 194 334 
3 62 343 287 
3 152 326 340 
3 75 235 268 
3 163 244 329 
3 155 338 199 
3 180 280 304 
3 57 200 282 
3 23 199 338 
3 137 300 196 
3 96 211 289 
3 121 231 232 
3 135 248 242 
3 152 254 326 
3 115 210 243 
3 133 293 207 
3 107 333 192 
3 71 72 321 
3 66 196 300 
3 99 290 219 
3 24 338 215 
3 144 239 260 
3 151 243 210 
3 17 279 18 
3 147 241 218 
3 137 197 299 
3 114 207 293 
3 139 195 341 
3 141 198 305 
3 82 305 198 
3 146 201 294 
3 143 219 290 
3 18 279 209 
3 63 299 197 
3 72 317 193 
3 145 227 334 
3 122 308 204 
3 80 294 201 
3 101 314 320 
3 129 260 239 
3 16 240 266 
3 123 242 248 
3 115 348 195 
3 121 220 233 
3 46 47 265 
3 142 320 196 
3 137 314 197 
3 18 309 19 
3 138 343 197 
3 122 218 241 
3 41 42 335 
3 132 245 247 
3 48 347 202 
3 194 288 334 
3 18 209 309 
3 118 228 329 
3 136 203 298 
3 162 286 303 
3 87 88 328 
3 133 266 240 
3 146 198 325 
3 9 258 257 
3 159 329 228 
3 49 50 295 
3 96 233 241 
3 131 269 238 
3 121 233 289 
3 37 38 275 
3 150 226 255 
3 26 221 284 
3 130 255 226 
3 93 298 203 
3 145 203 315 
3 140 238 269 
3 134 250 249 
3 103 220 278 
3 181 283 224 
3 56 57 282 
3 175 202 347 
3 128 247 245 
3 152 257 258 
3 144 346 285 
3 135 303 286 
3 8 285 28 
3 91 92 288 
3 122 220 308 
3 93 94 298 
3 35 36 297 
3 128 268 235 
3 98 271 212 
3 128 245 330 
3 140 219 344 
3 63 64 299 
3 65 66 300 
3 122 204 292 
3 127 249 250 
3 133 240 293 
3 72 73 317 
3 82 83 305 
3 67 68 291 
3 165 293 240 
3 100 315 301 
3 41 335 218 
3 80 81 294 
3 101 326 314 
3 139 341 231 
3 40 292 204 
3 143 331 202 
3 131 309 209 
3 126 277 224 
3 52 53 318 
3 54 55 319 
3 155 345 215 
3 59 60 336 
3 48 49 347 
3 89 90 337 
3 23 338 24 
3 127 317 267 
3 100 227 315 
3 162 227 286 
3 121 278 220 
3 98 212 311 
3 145 334 288 
3 126 224 283 
3 145 315 227 
3 146 349 281 
3 152 340 257 
3 124 284 221 
3 30 224 277 
3 146 325 349 
3 122 292 218 
3 140 344 208 
3 168 257 340 
3 50 228 295 
3 108 234 283 
3 128 235 333 
3 126 283 234 
3 97 255 312 
3 175 347 295 
3 132 271 245 
3 100 286 227 
3 154 217 318 
3 103 308 220 
3 52 318 217 
3 98 245 271 
3 49 295 347 
3 135 286 248 
3 130 243 312 
3 130 237 348 
3 167 278 232 
3 128 333 247 
3 156 225 337 
3 147 218 335 
3 121 232 278 
3 100 248 286 
3 164 310 246 
3 89 337 225 
3 151 312 243 
3 130 348 243 
3 99 269 307 
3 131 238 309 
3 96 289 233 
3 195 348 237 
3 19 309 238 
3 87 328 229 
3 8 313 285 
3 131 253 307 
3 148 307 253 
3 101 340 326 
3 98 311 249 
3 141 246 310 
3 94 270 298 
3 35 297 270 
3 47 331 265 
3 64 274 299 
3 65 300 274 
3 134 249 311 
3 136 298 270 
3 136 270 297 
3 83 276 305 
3 192 333 235 
3 130 312 255 
3 107 247 333 
3 137 299 274 
3 137 274 300 
3 131 307 269 
3 138 254 332 
3 138 287 343 
3 98 330 245 
3 141 305 276 
3 138 332 287 
3 154 296 319 
3 106 345 262 
3 154 318 296 
3 73 267 317 
3 143 265 331 
3 54 319 296 
3 53 296 318 
3 115 243 348 
3 138 326 254 
3 105 332 254 
3 144 285 313 
3 108 346 260 
3 155 262 345 
3 187 287 332 
3 144 260 346 
3 160 281 349 
3 102 349 325 
3 159 342 329 
3 163 329 342 

CELL_TYPES 607
5 
5 
5 
5 
5 
5 
5 
5 
5 
5 
5 
5 
5 
5 
5 
5 
5 
5 
5 
5 
5 
5 
5 
5 
5 
5 
5 
5 
5 
5 
5 
5 
5 
5 
5 
5 
5 
5 
5 
5 
5 
5 
5 
5 
5 
5 
5 
5 
5 
5 
5 
5 
5 
5 
5 
5 
5 
5 
5 
5 
5 
5 
5 
5 
5 
5 
5 
5 
5 
5 
5 
5 
5 
5 
5 
5 
5 
5 
5 
5 
5 
5 
5 
5 
5 
5 
5 
5 
5 
5 
5 
5 
5 
5 
5 
5 
5 
5 
5 
5 
5 
5 
5 
5 
5 
5 
5 
5 
5 
5 
5 
5 
5 
5 
5 
5 
5 
5 
5 
5 
5 
5 
5 
5 
5 
5 
5 
5 
5 
5 
5 
5 
5 
5 
5 
5 
5 
5 
5 
5 
5 
5 
5 
5 
5 
5 
5 
5 
5 
5 
5 
5 
5 
5 
5 
5 
5 
5 
5 
5 
5 
5 
5 
5 
5 
5 
5 
5 
5 
5 
5 
5 
5 
5 
5 
5 
5 
5 
5 
5 
5 
5 
5 
5 
5 
5 
5 
5 
5 
5 
5 
5 
5 
5 
5 
5 
5 
5 
5 
5 
5 
5 
5 
5 
5 
5 
5 
5 
5 
5 
5 
5 
5 
5 
5 
5 
5 
5 
5 
5 
5 
5 
5 
5 
5 
5 
5 
5 
5 
5 
5 
5 
5 
5 
5 
5 
5 
5 
5 
5 
5 
5 
5 
5 
5 
5 
5 
5 
5 
5 
5 
5 
5 
5 
5 
5 
5 
5 
5 
5 
5 
5 
5 
5 
5 
5 
5 
5 
5 
5 
5 
5 
5 
5 
5 
5 
5 
5 
5 
5 
5 
5 
5 
5 
5 
5 
5 
5 
5 
5 
5 
5 
5 
5 
5 
5 
5 
5 
5 
5 
5 
5 
5 
5 
5 
5 
5 
5 
5 
5 
5 
5 
5 
5 
5 
5 
5 
5 
5 
5 
5 
5 
5 
5 
5 
5 
5 
5 
5 
5 
5 
5 
5 
5 
5 
5 
5 
5 
5 
5 
5 
5 
5 
5 
5 
5 
5 
5 
5 
5 
5 
5 
5 
5 
5 
5 
5 
5 
5 
5 
5 
5 
5 
5 
5 
5 
5 
5 
5 
5 
5 
5 
5 
5 
5 
5 
5 
5 
5 
5 
5 
5 
5 
5 
5 
5 
5 
5 
5 
5 
5 
5 
5 
5 
5 
5 
5 
5 
5 
5 
5 
5 
5 
5 
5 
5 
5 
5 
5 
5 
5 
5 
5 
5 
5 
5 
5 
5 
5 
5 
5 
5 
5 
5 
5 
5 
5 
5 
5 
5 
5 
5 
5 
5 
5 
5 
5 
5 
5 
5 
5 
5 
5 
5 
5 
5 
5 
5 
5 
5 
5 
5 
5 
5 
5 
5 
5 
5 
5 
5 
5 
5 
5 
5 
5 
5 
5 
5 
5 
5 
5 
5 
5 
5 
5 
5 
5 
5 
5 
5 
5 
5 
5 
5 
5 
5 
5 
5 
5 
5 
5 
5 
5 
5 
5 
5 
5 
5 
5 
5 
5 
5 
5 
5 
5 
5 
5 
5 
5 
5 
5 
5 
5 
5 
5 
5 
5 
5 
5 
5 
5 
5 
5 
5 
5 
5 
5 
5 
5 
5 
5 
5 
5 
5 
5 
5 
5 
5 
5 
5 
5 
5 
5 
5 
5 
5 
5 
5 
5 
5 
5 
5 
5 
5 
5 
5 
5 
5 
5 
5 
5 
5 
5 
5 
5 
5 
5 
5 
5 
5 
5 
5 
5 
5 
5 
5 
5 
5 
5 
5 
5 
5 
5 
5 
5 
5 
5 
5 
5 
5 
5 
5 
5 
5 
5 
5 
5 
5 
5 
5 
5 
5 
5 
5 
5 
5 
5 
POINT_DATA 350
SCALARS GMDS_ID int 1
LOOKUP_TABLE default
0 1 2 3 4 5 6 7 8 9 10 11 12 13 14 15 16 17 18 19 20 21 22 23 24 25 26 27 28 29 30 31 32 33 34 35 36 37 38 39 40 41 42 43 44 45 46 47 48 49 50 51 52 53 54 55 56 57 58 59 60 61 62 63 64 65 66 67 68 69 70 71 72 73 74 75 76 77 78 79 80 81 82 83 84 85 86 87 88 89 90 91 92 93 94 95 96 97 98 99 100 101 102 103 104 105 106 107 108 109 110 111 112 113 114 115 116 117 118 119 120 121 122 123 124 125 126 127 128 129 130 131 132 133 134 135 136 137 138 139 140 141 142 143 144 145 146 147 148 149 150 151 152 153 154 155 156 157 158 159 160 161 162 163 164 165 166 167 168 169 170 171 172 173 174 175 176 177 178 179 180 181 182 183 184 185 186 187 188 189 190 191 192 193 194 195 196 197 198 199 200 201 202 203 204 205 206 207 208 209 210 211 212 213 214 215 216 217 218 219 220 221 222 223 224 225 226 227 228 229 230 231 232 233 234 235 236 237 238 239 240 241 242 243 244 245 246 247 248 249 250 251 252 253 254 255 256 257 258 259 260 261 262 263 264 265 266 267 268 269 270 271 272 273 274 275 276 277 278 279 280 281 282 283 284 285 286 287 288 289 290 291 292 293 294 295 296 297 298 299 300 301 302 303 304 305 306 307 308 309 310 311 312 313 314 315 316 317 318 319 320 321 322 323 324 325 326 327 328 329 330 331 332 333 334 335 336 337 338 339 340 341 342 343 344 345 346 347 348 349 
SCALARS angle float 1
LOOKUP_TABLE default
0 0 0 0 0 0 0 0 0 0 5.10089 4.45394 3.66573 2.73349 1.83125 1.09781 5.34886 4.65758 3.82097 2.9438 2.18122 1.5458 0 0 0 0 0 0 0 0 0 0 0 0 0 0 0 0 0 0 0 0 0 0 0 0 0 0 0 0 0 0 0 0 0 0 0 0 0 0 0 0 0 0 0 0 0 0 0 0 0 0 0 0 0 0 0 0 0 0 0 0 0 0 0 0 0 0 0 0 0 0 0 0 0 6.18142 5.51896 0.243041 0.000664067 0.357942 6.22402 7.89172e-06 6.28295 5.94713 0.0297283 0.000823511 6.26028 0.00803012 0.00711206 6.28242 6.27688 6.27793 0.000635438 0.469966 0.11875 3.49574 6.17318 4.45488 0.164721 0.0138988 6.28199 5.11662 6.02066 6.19845 0.00250219 6.2811 0.00243143 6.27763 0.00603438 0.0121738 1.9775 2.92033 0.0274868 5.86424 6.25878 6.11858 6.25752 4.54318e-07 0.000253405 4.0677 1.48148 6.28308 6.28297 0.203062 0.021085 6.25921 9.09739e-05 6.11688 0.014703 0.00156756 0.661687 0.283474 0.000194169 5.80733 0.0170055 6.27394 6.27509 6.28213 0.0022897 0.0459183 6.28313 6.28144 6.24007 0.0777857 6.28277 6.18687 5.19336 5.7241 6.28295 0.880484 0.0471174 6.28088 0.000832085 6.24321 7.74192e-06 0.177665 6.17605 0.0131245 0.00217343 6.28083 6.2442 0.00582484 0.000894261 6.26507 0.0103526 6.28264 6.27321 0.000740058 6.28251 0.0849107 0.000743594 6.28264 0.00459641 6.27905 6.27204 3.31448 6.28311 6.58857e-05 6.28316 6.27944 0.00569721 0.000332756 0.148148 6.26563 6.15503 5.95766 6.21732 0.0952033 1.60469 3.65945 6.0188 4.81942 0.000529442 5.91669 5.95968 6.26443 0.0906283 0.0270395 6.17077 0.603535 5.75628 0.00418739 6.28212 6.28067 0.00269192 6.27959 1.66063 6.24319 0.0643408 6.28246 0.299408 4.35213 4.8147 5.54578 0.00332757 0.00420764 0.00569335 2.63664 2.66673 0.0299457 5.79401 5.96248 6.09457 2.36544 0.164067 0.011772 6.28307 0.0149127 6.19573 6.27146 6.27157 6.28264 6.28116 4.14148 0.000397134 1.05699 0.000241911 6.28313 0.000338745 5.85017 0.0129986 0.00156681 6.27023 6.27971 0.00126636 0.0835388 5.46398 6.28117 0.00159254 1.26935 6.27387 0.0237447 0.00469455 6.28192 6.28319 6.2533 6.28313 0.00107215 5.52282 3.98896 6.24542 0.000221991 0.00426159 0.00530765 0.00138436 0.0148274 6.20498 0.000346011 6.27474 4.79887 0.178164 6.28307 6.19253 6.17065 6.82686e-05 0.0687725 0.00588394 6.26782 6.27193 1.47778e-05 6.28317 6.23515 0.341986 6.21293 6.14166 6.28314 0.0220986 0.423954 6.02679 3.0248 6.28298 6.25385 1.13229 0.0337907 1.38337e-05 6.24669 6.23698 6.28053 0.0101284 0.0072637 6.28307 6.28125 6.28259 0.000888978 6.28222 6.2831 0.000150627 6.28277 6.28214 0.0930427 0.000117234 0.0670625 0.00054392 0.007709 6.26272 6.2114 0.000566222 6.27887 6.27978 6.25294 6.28317 3.72769 0.0521376 0.000103839 1.09524 6.26302 0.0114358 0.0708435 2.81949 6.28314 
VECTORS cross_X float
1 0 0 1 0 0 1 0 0 1 0 0 1 0 0 1 0 0 1 0 0 1 0 0 1 0 0 1 0 0 0.291289 0.956635 0 0.441537 0.897243 0 0.608655 0.793435 0 0.775448 0.631412 0 0.897021 0.441987 0 0.962574 0.271021 0 0.231462 0.972844 0 0.395307 0.918549 0 0.577411 0.816453 0 0.741193 0.671292 0 0.854969 0.518679 0 0.926252 0.376904 0 1 0 0 1 0 0 1 0 0 1 0 0 1 0 0 1 0 0 1 0 0 1 0 0 1 0 0 1 0 0 1 0 0 1 0 0 1 0 0 1 0 0 1 0 0 1 0 0 1 0 0 1 0 0 1 0 0 1 0 0 1 0 0 1 0 0 1 0 0 1 0 0 1 0 0 1 0 0 1 0 0 1 0 0 1 0 0 1 0 0 1 0 0 1 0 0 1 0 0 1 0 0 1 0 0 1 0 0 1 0 0 1 0 0 1 0 0 1 0 0 1 0 0 1 0 0 1 0 0 1 0 0 1 0 0 1 0 0 1 0 0 1 0 0 1 0 0 1 0 0 1 0 0 1 0 0 1 0 0 1 0 0 1 0 0 1 0 0 1 0 0 1 0 0 1 0 0 1 0 0 1 0 0 1 0 0 1 0 0 1 0 0 1 0 0 1 0 0 1 0 0 1 0 0 1 0 0 1 0 0 1 0 0 1 0 0 1 0 0 0.0254377 0.999676 0 0.189896 0.981804 0 0.998155 0.0607229 0 1 0.000166017 0 0.995999 0.089366 0 0.0147907 0.999891 0 1 1.97293e-06 0 5.83504e-05 1 0 0.0839152 0.996473 0 0.999972 0.00743202 0 1 0.000205878 0 0.00572698 0.999984 0 0.999998 0.00200753 0 0.999998 0.00177801 0 0.00019159 1 0 0.00157721 0.999999 0 0.00131398 0.999999 0 1 0.00015886 0 0.993106 0.117221 0 0.999559 0.0296832 0 0.641814 0.76686 0 0.0274969 0.999622 0 0.441327 0.897346 0 0.999152 0.0411686 0 0.999994 0.0034747 0 0.000298776 1 0 0.287525 0.957773 0 0.0655833 0.997847 0 0.0211824 0.999776 0 1 0.000625547 0 0.00052031 1 0 1 0.000607858 0 0.00138981 0.999999 0 0.999999 0.00150859 0 0.999995 0.00304345 0 0.880265 0.474482 0 0.74512 0.66693 0 0.999976 0.00687165 0 0.104546 0.99452 0 0.0061014 0.999981 0 0.0411388 0.999153 0 0.00641513 0.999979 0 1 1.1358e-07 0 1 6.33513e-05 0 0.525983 0.850495 0 0.932194 0.36196 0 2.63682e-05 1 0 5.45146e-05 1 0 0.998712 0.0507438 0 0.999986 0.00527122 0 0.00599429 0.999982 0 1 2.27435e-05 0 0.0415651 0.999136 0 0.999993 0.00367575 0 1 0.00039189 0 0.986349 0.164668 0 0.99749 0.0708092 0 1 4.85423e-05 0 0.118682 0.992932 0 0.999991 0.00425135 0 0.00231115 0.999997 0 0.00202283 0.999998 0 0.000262782 1 0 1 0.000572425 0 0.999934 0.0114793 0 1.44976e-05 1 0 0.000436551 1 0 0.0107775 0.999942 0 0.999811 0.0194452 0 0.000104504 1 0 0.0240761 0.99971 0 0.269098 0.963113 0 0.139317 0.990248 0 5.99345e-05 1 0 0.975871 0.218348 0 0.999931 0.0117791 0 0.000575805 1 0 1 0.000208021 0 0.00999396 0.99995 0 1 1.93548e-06 0 0.999014 0.0444017 0 0.0267798 0.999641 0 0.999995 0.00328111 0 1 0.000543357 0 0.000589989 1 0 0.00974577 0.999953 0 0.999999 0.00145621 0 1 0.000223565 0 0.00452839 0.99999 0 0.999997 0.00258814 0 0.000136159 1 0 0.0024932 0.999997 0 1 0.000185015 0 0.000168303 1 0 0.999775 0.0212261 0 1 0.000185899 0 0.000136756 1 0 0.999999 0.0011491 0 0.00103275 0.999999 0 0.0027858 0.999996 0 0.675893 0.737 0 1.99708e-05 1 0 1 1.64714e-05 0 6.57688e-06 1 0 0.000935108 1 0 0.999999 0.0014243 0 1 8.31889e-05 0 0.999314 0.0370286 0 0.0043891 0.99999 0 0.0320345 0.999487 0 0.0812918 0.99669 0 0.0164657 0.999864 0 0.999717 0.0237986 0 0.920604 0.390498 0 0.6099 0.792479 0 0.0660488 0.997816 0 0.357828 0.933787 0 1 0.000132361 0 0.0914948 0.995806 0 0.0807879 0.996731 0 0.0046899 0.999989 0 0.999743 0.0226551 0 0.999977 0.00675982 0 0.0281001 0.999605 0 0.988639 0.150312 0 0.131346 0.991337 0 0.999999 0.00104685 0 0.000266991 1 0 0.000628442 1 0 1 0.00067298 0 0.000898735 1 0 0.915053 0.403334 0 0.00999925 0.99995 0 0.999871 0.0160845 0 0.000180938 1 0 0.9972 0.0747822 0 0.464228 0.885716 0 0.358929 0.933365 0 0.18331 0.983055 0 1 0.000831892 0 0.999999 0.00105191 0 0.999999 0.00142334 0 0.790507 0.612452 0 0.785877 0.618382 0 0.999972 0.00748637 0 0.121989 0.992531 0 0.0800895 0.996788 0 0.0471367 0.998888 0 0.830183 0.557491 0 0.999159 0.0410053 0 0.999996 0.00294301 0 2.92321e-05 1 0 0.999993 0.00372817 0 0.0218613 0.999761 0 0.00293185 0.999996 0 0.00290423 0.999996 0 0.000136321 1 0 0.000505191 1 0 0.510207 0.860052 0 1 9.92836e-05 0 0.96529 0.261182 0 1 6.04778e-05 0 1.26452e-05 1 0 1 8.46862e-05 0 0.108041 0.994146 0 0.999995 0.00324966 0 1 0.000391703 0 0.00323917 0.999995 0 0.000869949 1 0 1 0.000316589 0 0.999782 0.0208832 0 0.203373 0.979101 0 0.000504888 1 0 1 0.000398136 0 0.95007 0.312037 0 0.00233004 0.999997 0 0.999982 0.00593614 0 0.999999 0.00117364 0 0.000315108 1 0 2.6407e-08 1 0 0.00747107 0.999972 0 1.40396e-05 1 0 1 0.000268036 0 0.188949 0.981987 0 0.542622 0.839977 0 0.00944093 0.999955 0 1 5.54977e-05 0 0.999999 0.0010654 0 0.999999 0.00132691 0 1 0.00034609 0 0.999993 0.00370684 0 0.0195504 0.999809 0 1 8.65028e-05 0 0.0021108 0.999998 0 0.362622 0.931936 0 0.999008 0.0445262 0 2.97815e-05 1 0 0.0226624 0.999743 0 0.0281301 0.999604 0 1 1.70671e-05 0 0.999852 0.0171923 0 0.999999 0.00147098 0 0.00384062 0.999993 0 0.00281496 0.999996 0 1 3.69446e-06 0 4.13911e-06 1 0 0.0120073 0.999928 0 0.996347 0.0853925 0 0.0175638 0.999846 0 0.0353747 0.999374 0 1.06088e-05 1 0 0.999985 0.00552462 0 0.994388 0.10579 0 0.064056 0.997946 0 0.727449 0.686161 0 5.08346e-05 1 0 0.00733485 0.999973 0 0.960202 0.279307 0 0.999964 0.00844757 0 1 3.45842e-06 0 0.00912376 0.999958 0 0.0115511 0.999933 0 0.000663219 1 0 0.999997 0.0025321 0 0.999998 0.00181592 0 2.9885e-05 1 0 0.000484125 1 0 0.000149978 1 0 1 0.000222244 0 0.000242522 1 0 2.18771e-05 1 0 1 3.76567e-05 0 0.000103324 1 0 0.00026127 1 0 0.999729 0.0232586 0 1 2.93084e-05 0 0.999859 0.0167648 0 1 0.00013598 0 0.999998 0.00192725 0 0.00511733 0.999987 0 0.0179464 0.999839 0 1 0.000141555 0 0.00107816 0.999999 0 0.000850777 1 0 0.00756232 0.999971 0 4.97771e-06 1 0 0.596291 0.802768 0 0.999915 0.013034 0 1 2.59598e-05 0 0.962747 0.270402 0 0.00504006 0.999987 0 0.999996 0.00285894 0 0.999843 0.0177099 0 0.761694 0.647936 0 1.20451e-05 1 0 
VECTORS VY float