# vtk DataFile Version 3.0
Generated by GMDS VTK Writer

ASCII
DATASET UNSTRUCTURED_GRID
POINTS 1074 float
0 7 0
15 25 0
16.5 28.5 0
20 30 0
23.5 28.5 0
25 25 0
40 7 0
37 0 0
3 0 0
15.0862 25.9712 0
15.3921 26.8981 0
15.8722 27.7482 0
16.4979 28.4979 0
17.2476 29.1234 0
18.1003 29.5987 0
19.0294 29.8977 0
20 30 0
20.9706 29.8977 0
21.8997 29.5987 0
22.7524 29.1234 0
23.5021 28.4979 0
24.1278 27.7482 0
24.6079 26.8981 0
24.9138 25.9712 0
0.625 7.75 0
1.25 8.5 0
1.875 9.25 0
2.5 10 0
3.125 10.75 0
3.75 11.5 0
4.375 12.25 0
5 13 0
5.625 13.75 0
6.25 14.5 0
6.875 15.25 0
7.5 16 0
8.125 16.75 0
8.75 17.5 0
9.375 18.25 0
10 19 0
10.625 19.75 0
11.25 20.5 0
11.875 21.25 0
12.5 22 0
13.125 22.75 0
13.75 23.5 0
14.375 24.25 0
25.625 24.25 0
26.25 23.5 0
26.875 22.75 0
27.5 22 0
28.125 21.25 0
28.75 20.5 0
29.375 19.75 0
30 19 0
30.625 18.25 0
31.25 17.5 0
31.875 16.75 0
32.5 16 0
33.125 15.25 0
33.75 14.5 0
34.375 13.75 0
35 13 0
35.625 12.25 0
36.25 11.5 0
36.875 10.75 0
37.5 10 0
38.125 9.25 0
38.75 8.5 0
39.375 7.75 0
39.625 6.125 0
39.25 5.25 0
38.875 4.375 0
38.5 3.5 0
38.125 2.625 0
37.75 1.75 0
37.375 0.875 0
36 0 0
35 0 0
34 0 0
33 0 0
32 0 0
31 0 0
30 0 0
29 0 0
28 0 0
27 0 0
26 0 0
25 0 0
24 0 0
23 0 0
22 0 0
21 0 0
20 0 0
19 0 0
18 0 0
17 0 0
16 0 0
15 0 0
14 0 0
13 0 0
12 0 0
11 0 0
10 0 0
9 0 0
8 0 0
7 0 0
6 0 0
5 0 0
4 0 0
2.625 0.875 0
2.25 1.75 0
1.875 2.625 0
1.5 3.5 0
1.125 4.375 0
0.75 5.25 0
0.375 6.125 0
20 12.1001 0
12.3039 8.49373 0
27.7174 8.60812 0
20.0139 19.6179 0
14.1963 14.4496 0
25.7664 14.3908 0
21.8973 6.21395 0
33.1969 6.02831 0
6.8598 5.98127 0
16.6294 5.19993 0
19.9695 24.3025 0
15.5987 18.6602 0
24.5747 18.5292 0
10.2521 12.481 0
29.7187 12.3738 0
25.8991 4.51626 0
10.9116 4.51212 0
16.5181 9.67478 0
23.9263 10.5314 0
21.6852 15.7672 0
32.6023 9.8337 0
7.39765 9.8337 0
29.8267 3.91873 0
17.8282 15.6271 0
17.4196 21.9551 0
22.7056 21.9895 0
19.7991 3.39254 0
19.5904 8.85326 0
5.06194 3.25917 0
34.9089 3.26682 0
3.69725 6.34554 0
36.3027 6.34554 0
13.9995 3.3507 0
12.5097 17.204 0
27.3054 17.2261 0
23.0241 3.12177 0
13.561 11.2474 0
24.7421 7.52741 0
16.8021 12.7544 0
7.9744 3.01295 0
26.8209 11.5457 0
9.49836 7.70093 0
30.6505 7.6105 0
23.0475 13.2053 0
10.5061 15.1666 0
29.4618 15.2855 0
13.986 6.22782 0
20.1835 27.2433 0
5.17374 8.56432 0
34.8263 8.56432 0
32.2328 2.67963 0
17.0855 2.70453 0
17.8878 26.0278 0
19.3473 6.13182 0
22.369 25.6711 0
28.1453 5.90431 0
7.77384 12.3432 0
32.229 12.3497 0
19.7782 21.9455 0
27.594 2.56409 0
22.327 8.54369 0
14.9775 21.0968 0
25.0032 21.1801 0
24.114 16.3243 0
29.6848 10.1143 0
10.2758 9.97368 0
17.9392 18.0786 0
22.0538 18.2116 0
15.5196 16.3024 0
13.3044 19.292 0
26.6912 19.2973 0
19.7828 14.3985 0
17.364 7.52215 0
14.5806 8.33264 0
11.9819 2.30295 0
25.0454 2.35377 0
12.4191 13.0744 0
27.8636 13.7127 0
8.89521 5.50868 0
19.971 17.2115 0
23.9923 5.32805 0
11.3335 6.52001 0
18.4573 10.5426 0
21.7971 10.7581 0
17.107 24.1719 0
31.2553 14.2077 0
8.73792 14.2495 0
36.5567 4.39351 0
3.44331 4.39351 0
25.8657 9.53134 0
31.067 5.60496 0
21.2838 2.20094 0
24.9674 12.4869 0
17.3041 19.9779 0
9.98932 1.96413 0
23.346 23.8846 0
22.8799 19.7756 0
34.3955 10.6893 0
5.60451 10.6893 0
33.307 7.97405 0
6.69301 7.97405 0
30.3684 1.96315 0
11.68 11.484 0
6.52702 1.9139 0
5.17817 5.1844 0
34.8233 5.18705 0
12.2778 15.4282 0
21.4516 4.30994 0
26.2608 6.33241 0
15.9747 14.5123 0
15.2686 1.91272 0
21.5245 23.4306 0
15.5689 23.0329 0
10.7232 17.2369 0
29.2352 17.1889 0
21.244 20.9281 0
14.8925 12.7365 0
12.8976 4.60123 0
6.56625 4.0515 0
18.7325 1.84695 0
33.3181 4.10449 0
22.231 27.3881 0
27.2913 15.5487 0
18.4407 27.8903 0
18.6271 23.315 0
21.2261 13.4292 0
33.8869 1.6577 0
15.6726 6.87609 0
3.35867 8.10764 0
36.6413 8.10764 0
35.6917 1.62747 0
4.31403 1.66106 0
25.5205 17.2732 0
31.2227 11.0765 0
8.7445 11.0302 0
18.5368 13.1493 0
38.0201 6.89942 0
1.97988 6.89942 0
17.9706 4.18955 0
27.9752 10.2253 0
34.6061 6.88548 0
5.39391 6.88548 0
24.5095 22.8832 0
15.7517 3.81164 0
18.7373 20.6466 0
20.5283 7.21808 0
15.5349 11.0557 0
28.1346 4.18402 0
19.9727 10.5674 0
14.3623 17.5042 0
13.567 1.65627 0
11.8813 18.6697 0
28.1622 18.6566 0
13.5397 9.55328 0
28.917 7.27152 0
23.6814 1.59231 0
24.1781 14.6088 0
31.0858 9.23996 0
8.96105 9.23286 0
23.642 8.86222 0
23.1763 7.31734 0
18.1107 8.98308 0
13.9791 15.9736 0
31.5892 4.17006 0
24.4606 3.90097 0
11.0321 13.7828 0
16.9209 11.2171 0
20.8021 25.8251 0
10.8264 8.35267 0
8.47452 1.50574 0
8.06508 6.88579 0
31.9576 6.96793 0
26.4863 1.49652 0
26.3028 7.90678 0
9.50776 3.91374 0
19.621 15.8538 0
28.2793 11.7728 0
6.21056 12.11 0
33.7894 12.11 0
16.4977 17.5444 0
22.9591 11.7212 0
26.4775 13.0364 0
28.8692 1.44113 0
15.0439 5.22159 0
29.5552 5.36927 0
23.4245 17.5712 0
9.14005 15.8085 0
30.7976 15.7731 0
25.3736 11.035 0
16.4914 25.5113 0
20.5733 5.55726 0
12.8608 7.1099 0
13.6181 20.8303 0
26.4272 20.8427 0
22.6634 14.774 0
3.25933 2.98043 0
36.7407 2.98054 0
19.2845 25.9138 0
37.7495 5.29981 0
2.25049 5.29981 0
25.8977 15.8537 0
29.8138 13.8311 0
18.7847 7.45191 0
19.6576 28.5931 0
16.0288 8.2735 0
14.9639 9.59369 0
17.5949 14.2087 0
21.0608 28.4668 0
18.4518 24.7272 0
22.7921 4.72009 0
11.653 9.70566 0
32.5766 13.7204 0
7.42339 13.7204 0
21.4089 19.4332 0
26.3435 3.04033 0
35.6509 10.0782 0
4.34905 10.0782 0
31.7305 1.31786 0
17.1275 27.1034 0
17.7982 6.05637 0
27.4292 7.11376 0
23.1781 26.7272 0
8.10613 4.50651 0
17.4961 1.38245 0
14.6518 19.7346 0
25.3471 19.7384 0
23.6592 25.3283 0
18.6087 19.3345 0
29.5859 8.57654 0
30.9955 12.7787 0
8.99171 12.8849 0
20.9735 9.35991 0
16.3324 21.0334 0
20.185 1.29827 0
6.10544 9.20088 0
33.8946 9.20088 0
9.99389 6.39989 0
23.7496 21.2722 0
14.4865 22.3641 0
32.8461 11.1295 0
7.15392 11.1295 0
18.4104 16.8296 0
21.1406 22.11 0
22.7024 9.91597 0
5.38618 1.48378 0
18.1618 11.8429 0
19.2286 4.85084 0
21.3175 17.0773 0
13.8525 13.0872 0
10.8593 3.02435 0
28.9937 2.8517 0
22.7088 16.4425 0
22.3024 1.33669 0
11.045 1.29672 0
20.2386 23.2211 0
21.8415 12.2217 0
27.3189 5.01119 0
32.2803 4.99443 0
28.4228 16.0804 0
26.3849 18.1782 0
21.5124 24.4769 0
20.7444 18.3134 0
12.6519 3.1018 0
21.0337 14.7079 0
21.6421 7.50655 0
25.7654 22.1763 0
24.9818 6.26949 0
18.6306 22.2408 0
19.9492 20.749 0
16.6504 18.7064 0
10.5619 11.1448 0
29.9577 11.181 0
35.6866 7.83053 0
4.31343 7.83053 0
7.99287 8.31452 0
32.0339 8.39505 0
11.8615 16.275 0
14.136 4.5384 0
29.7408 6.56828 0
12.3953 5.84824 0
23.1358 18.9141 0
15.9177 19.8707 0
13.0044 14.1611 0
33.6001 3.02475 0
15.3007 15.3145 0
17.0075 16.1401 0
19.4561 18.3719 0
13.4596 18.2098 0
18.4938 3.06874 0
25.0693 8.67852 0
27.6833 1.21891 0
12.5688 1.01831 0
15.74 24.1343 0
30.2901 16.6908 0
9.69162 16.7406 0
24.2344 20.0447 0
28.3874 14.6198 0
9.92829 14.2532 0
20.8438 2.92983 0
27.8378 20.3211 0
12.1781 20.3088 0
11.4536 12.3992 0
12.7537 11.9244 0
13.1928 7.92594 0
20.4542 16.3549 0
15.358 13.6822 0
6.40738 2.9868 0
12.9459 10.4427 0
24.703 1.16512 0
18.67 14.7973 0
34.7021 1.26964 0
3.44443 9.27351 0
36.5556 9.27351 0
26.8057 10.3677 0
30.934 2.70623 0
24.4953 23.9475 0
28.4991 9.26585 0
24.8084 13.6529 0
20.1051 13.3407 0
14.5773 7.01713 0
16.244 1.05561 0
35.8865 5.25447 0
4.11375 5.25403 0
10.3199 5.19412 0
27.5282 12.6348 0
35.4467 4.32464 0
4.55031 4.32284 0
37.6053 7.8502 0
2.39472 7.8502 0
32.8115 1.21585 0
23.3661 6.20608 0
26.8872 14.2697 0
16.8382 4.21134 0
16.7652 22.8394 0
7.50331 1.02114 0
24.2239 11.9341 0
28.695 12.7548 0
23.5301 22.7738 0
14.4876 18.6557 0
11.4435 7.55673 0
10.9252 18.082 0
29.0751 18.0718 0
8.00295 5.96527 0
24.1489 2.8908 0
14.5244 1.05608 0
24.9415 15.3712 0
25.0865 5.30619 0
11.4885 5.54172 0
27.0554 3.90436 0
15.8227 12.0716 0
20.1442 4.50929 0
17.6317 20.7896 0
19.1352 26.922 0
9.44721 0.994325 0
34.1677 7.72488 0
5.83226 7.72488 0
19.4511 11.2974 0
32.1706 15.1107 0
7.947 14.9921 0
20.7257 11.3314 0
37.6825 4.36018 0
2.31747 4.36018 0
24.7885 9.79209 0
11.4855 14.7156 0
19.3232 9.72535 0
17.6258 9.87957 0
22.4552 20.8752 0
21.9533 2.84765 0
28.8698 10.8237 0
16.4931 6.60622 0
15.4646 17.5609 0
6.2416 5.08827 0
5.56335 4.23879 0
26.8983 9.24264 0
17.1928 8.87305 0
33.7953 5.13983 0
10.3932 7.37326 0
19.977 2.55001 0
34.4125 4.25538 0
6.47279 13.0147 0
33.5272 13.0147 0
9.33345 11.7274 0
9.26293 2.88103 0
8.96066 6.45673 0
15.0449 2.97444 0
24.4937 17.7086 0
22.4925 24.6206 0
31.0297 6.65457 0
25.4984 18.694 0
33.5189 7.01533 0
6.48854 7.00756 0
20.773 7.9961 0
24.039 6.7961 0
32.0941 5.88723 0
22.5414 23.0735 0
21.658 26.4417 0
7.64379 2.10967 0
5.40675 11.8639 0
34.5932 11.8639 0
11.6727 3.65547 0
30.6638 4.67062 0
16.3469 26.7266 0
18.2706 5.24505 0
29.8197 1.04997 0
24.0007 12.7955 0
30.6012 12.1044 0
5.66295 2.56118 0
2.94818 7.1372 0
37.0518 7.1372 0
21.3308 1.09309 0
17.4786 25.0834 0
34.8936 2.21243 0
23.3967 15.2065 0
11.6822 17.7074 0
28.2882 17.6654 0
4.79217 6.10214 0
35.2074 6.10388 0
25.899 12.0293 0
16.3011 21.9185 0
12.9724 16.2299 0
25.3107 3.2317 0
26.728 16.2836 0
7.36022 4.97758 0
30.381 14.751 0
32.3795 3.67722 0
9.61982 8.6033 0
18.866 28.8444 0
14.7059 11.6606 0
22.2211 13.8836 0
21.9412 5.13501 0
14.588 10.5907 0
24.3453 21.8404 0
16.066 2.61635 0
2.58378 6.13628 0
37.4162 6.13628 0
4.20578 2.70804 0
36.376 0.926927 0
3.62395 0.926927 0
34.6968 9.72075 0
5.30323 9.72075 0
17.4752 28.0903 0
6.72379 10.4415 0
33.2762 10.4415 0
35.8628 2.61503 0
22.775 2.11721 0
31.6201 10.0186 0
8.38184 10.0121 0
13.3629 14.9934 0
28.898 13.8102 0
1.00794 6.86377 0
38.9921 6.86377 0
16.1527 13.5726 0
14.9038 6.10857 0
29.8808 2.99049 0
17.7652 22.9612 0
17.4338 17.1208 0
16.1826 15.6806 0
21.9199 28.4971 0
36.7968 1.96791 0
3.20323 1.96791 0
6.31942 0.827017 0
18.5 0.881438 0
1.48657 5.8851 0
38.5134 5.8851 0
25.012 16.2967 0
14.51 23.3164 0
14.3489 2.23853 0
5.89899 6.05656 0
21.7748 9.85842 0
23.2824 27.6305 0
34.1323 6.06448 0
25.7072 6.99973 0
29.0596 4.64953 0
7.07841 3.33814 0
7.11688 8.86004 0
32.8955 8.85013 0
20.2732 15.243 0
25.6668 0.817423 0
11.6177 19.6028 0
28.4006 19.6041 0
18.8739 12.1817 0
[...]
POINT_DATA 1074
SCALARS GMDS_ID int 1
LOOKUP_TABLE default
0 1 2 3 4 5 6 7 8 9 10 11 12 13 14 15 16 17 18 19 20 21 22 23 24 25 26 27 28 29 30 31 32 33 34 35 36 37 38 39 40 41 42 43 44 45 46 47 48 49 50 51 52 53 54 55 56 57 58 59 60 61 62 63 64 65 66 67 68 69 70 71 72 73 74 75 76 77 78 79 80 81 82 83 84 85 86 87 88 89 90 91 92 93 94 95 96 97 98 99 100 101 102 103 104 105 106 107 108 109 110 111 112 113 114 115 116 117 118 119 120 121 122 123 124 125 126 127 128 129 130 131 132 133 134 135 136 137 138 139 140 141 142 143 144 145 146 147 148 149 150 151 152 153 154 155 156 157 158 159 160 161 162 163 164 165 166 167 168 169 170 171 172 173 174 175 176 177 178 179 180 181 182 183 184 185 186 187 188 189 190 191 192 193 194 195 196 197 198 199 200 201 202 203 204 205 206 207 208 209 210 211 212 213 214 215 216 217 218 219 220 221 222 223 224 225 226 227 228 229 230 231 232 233 234 235 236 237 238 239 240 241 242 243 244 245 246 247 248 249 250 251 252 253 254 255 256 257 258 259 260 261 262 263 264 265 266 267 268 269 270 271 272 273 274 275 276 277 278 279 280 281 282 283 284 285 286 287 288 289 290 291 292 293 294 295 296 297 298 299 300 301 302 303 304 305 306 307 308 309 310 311 312 313 314 315 316 317 318 319 320 321 322 323 324 325 326 327 328 329 330 331 332 333 334 335 336 337 338 339 340 341 342 343 344 345 346 347 348 349 350 351 352 353 354 355 356 357 358 359 360 361 362 363 364 365 366 367 368 369 370 371 372 373 374 375 376 377 378 379 380 381 382 383 384 385 386 387 388 389 390 391 392 393 394 395 396 397 398 399 400 401 402 403 404 405 406 407 408 409 410 411 412 413 414 415 416 417 418 419 420 421 422 423 424 425 426 427 428 429 430 431 432 433 434 435 436 437 438 439 440 441 442 443 444 445 446 447 448 449 450 451 452 453 454 455 456 457 458 459 460 461 462 463 464 465 466 467 468 469 470 471 472 473 474 475 476 477 478 479 480 481 482 483 484 485 486 487 488 489 490 491 492 493 494 495 496 497 498 499 500 501 502 503 504 505 506 507 508 509 510 511 512 513 514 515 516 517 518 519 520 521 522 523 524 525 526 527 528 529 530 531 532 533 534 535 536 537 538 539 540 541 542 543 544 545 546 547 548 549 550 551 552 553 554 555 556 557 558 559 560 561 562 563 564 565 566 567 568 569 570 571 572 573 574 575 576 577 578 579 580 581 582 583 584 585 586 587 588 589 590 591 592 593 594 595 596 597 598 599 600 601 602 603 604 605 606 607 608 609 610 611 612 613 614 615 616 617 618 619 620 621 622 623 624 625 626 627 628 629 630 631 632 633 634 635 636 637 638 639 640 641 642 643 644 645 646 647 648 649 650 651 652 653 654 655 656 657 658 659 660 661 662 663 664 665 666 667 668 669 670 671 672 673 674 675 676 677 678 679 680 681 682 683 684 685 686 687 688 689 690 691 692 693 694 695 696 697 698 699 700 701 702 703 704 705 706 707 708 709 710 711 712 713 714 715 716 717 718 719 720 721 722 723 724 725 726 727 728 729 730 731 732 733 734 735 736 737 738 739 740 741 742 743 744 745 746 747 748 749 750 751 752 753 754 755 756 757 758 759 760 761 762 763 764 765 766 767 768 769 770 771 772 773 774 775 776 777 778 779 780 781 782 783 784 785 786 787 788 789 790 791 792 793 794 795 796 797 798 799 800 801 802 803 804 805 806 807 808 809 810 811 812 813 814 815 816 817 818 819 820 821 822 823 824 825 826 827 828 829 830 831 832 833 834 835 836 837 838 839 840 841 842 843 844 845 846 847 848 849 850 851 852 853 854 855 856 857 858 859 860 861 862 863 864 865 866 867 868 869 870 871 872 873 874 875 876 877 878 879 880 881 882 883 884 885 886 887 888 889 890 891 892 893 894 895 896 897 898 899 900 901 902 903 904 905 906 907 908 909 910 911 912 913 914 915 916 917 918 919 920 921 922 923 924 925 926 927 928 929 930 931 932 933 934 935 936 937 938 939 940 941 942 943 944 945 946 947 948 949 950 951 952 953 954 955 956 957 958 959 960 961 962 963 964 965 966 967 968 969 970 971 972 973 974 975 976 977 978 979 980 981 982 983 984 985 986 987 988 989 990 991 992 993 994 995 996 997 998 999 1000 1001 1002 1003 1004 1005 1006 1007 1008 1009 1010 1011 1012 1013 1014 1015 1016 1017 1018 1019 1020 1021 1022 1023 1024 1025 1026 1027 1028 1029 1030 1031 1032 1033 1034 1035 1036 1037 1038 1039 1040 1041 1042 1043 1044 1045 1046 1047 1048 1049 1050 1051 1052 1053 1054 1055 1056 1057 1058 1059 1060 1061 1062 1063 1064 1065 1066 1067 1068 1069 1070 1071 1072 1073 
SCALARS angle float 1
LOOKUP_TABLE default
0 4.71659 0 0 0 1.5666 0 0 0 5.46857 4.61738 3.86405 3.1414 2.40766 1.63976 0.832776 0 5.45041 4.64343 3.87553 3.14179 2.41914 1.6658 0.814615 3.50423 3.50423 3.50423 3.50423 3.50423 3.50423 3.50423 3.50423 3.50423 3.50423 3.50423 3.50423 3.50423 3.50423 3.50423 3.50423 3.50423 3.50423 3.50423 3.50423 3.50423 3.50423 3.50423 2.77895 2.77895 2.77895 2.77895 2.77895 2.77895 2.77895 2.77895 2.77895 2.77895 2.77895 2.77895 2.77895 2.77895 2.77895 2.77895 2.77895 2.77895 2.77895 2.77895 2.77895 2.77895 2.77895 4.66362 4.66362 4.66362 4.66362 4.66362 4.66362 4.66362 0 0 0 0 0 0 0 0 0 0 0 0 0 0 0 0 0 0 0 0 0 0 0 0 0 0 0 0 0 0 0 0 0 1.61957 1.61957 1.61957 1.61957 1.61957 1.61957 1.61957 3.22524 5.57709 1.82398 3.21009 3.51802 2.82561 0.0223853 4.38063 0.412823 6.24907 3.28311 3.48793 2.85029 3.55938 2.76835 0.0312497 6.27259 5.60006 2.47014 3.04747 2.81401 3.52152 6.25906 3.3644 3.59651 2.81197 6.27927 6.20563 0.549975 5.47887 2.32239 3.8255 6.26841 3.50729 2.80353 0.00854593 3.76967 0.182649 3.51444 0.0862204 2.71863 5.39916 2.42707 2.91749 3.51958 2.78582 6.19773 3.05272 3.35731 2.95473 6.14298 6.27473 3.94468 6.26316 2.50389 0.098693 3.51925 2.78351 3.28254 0.00259523 0.132344 3.5532 2.77084 2.89157 2.71324 3.73692 3.37506 3.00646 3.46873 3.51094 2.79586 3.21456 6.1862 5.96398 6.28182 0.00728191 3.56875 2.78479 0.0265433 3.19834 0.0376668 6.1554 4.63075 2.69675 4.02278 2.78047 3.51835 4.6651 1.45721 2.05285 6.22971 0.00107388 2.7947 3.4682 0.0141344 2.4225 2.90949 2.81039 3.48897 2.96362 3.4089 6.25393 3.65072 0.116105 1.06417 4.65301 3.51781 0.00505794 0.113162 3.47196 6.27751 2.8834 3.72459 3.50857 2.78729 3.04812 3.58252 6.25245 0.294066 6.27989 5.79385 3.04833 2.80486 2.50343 3.58589 3.07523 6.0964 6.18486 3.2636 3.02849 5.8168 0.368081 2.83624 2.77651 3.55612 3.35497 3.40374 2.86718 6.26789 2.63103 3.39199 2.74567 2.61728 6.2645 3.38343 6.28081 3.92078 0.0155845 4.01812 3.49514 6.27939 3.50723 2.78902 4.874 0.600152 0.00417648 2.88296 2.75662 3.68676 0.38142 0.0881485 6.08025 3.50064 6.13899 0.018772 3.53997 3.84059 2.99206 5.16623 0.0285889 6.05495 2.87207 0.00236633 0.435409 0.0311019 3.22607 2.74374 3.50533 2.78657 3.44351 2.83067 2.7854 6.27766 6.23995 0.0342851 2.91767 3.51102 2.78185 2.65285 4.52483 6.28193 6.10682 3.52244 2.7801 2.97087 1.25424 4.89888 3.45927 4.47382 1.76203 2.83102 2.77981 6.22841 0.720415 6.06427 5.30559 3.39573 4.59314 3.7628 0.0177837 4.06894 2.78101 3.51153 3.05212 0.0103141 2.83097 3.46435 6.23607 3.79715 6.24369 0.282045 2.37793 0.109283 6.28008 3.51725 2.80647 2.00792 3.35135 2.50123 2.77827 3.53188 0.0584097 3.55804 6.28255 3.45005 2.87309 6.17472 2.79016 3.56446 2.79498 3.51334 3.32702 3.03377 1.1364 0.146116 3.5181 6.27107 3.07694 3.5703 0.00585137 6.2739 2.97099 0.00189409 0.0032358 3.20744 2.9791 0.0447562 5.96501 2.79355 2.81076 2.80965 3.12714 6.27418 3.10017 0.0366723 2.75434 0.0832969 3.49042 3.23214 3.45834 3.62823 2.7546 3.10808 3.18233 3.65933 2.82488 3.51226 6.25235 0.262057 6.2104 2.91385 3.5118 3.53548 5.91967 3.48059 3.41072 3.25488 3.50507 6.27584 0.612388 6.28295 6.28224 4.08001 2.78297 3.50851 2.82629 2.78935 3.52584 0.000285081 2.7826 3.50861 3.5852 3.64528 5.96885 3.15332 3.51757 0.220653 3.95821 0.00272893 3.30769 6.08772 3.43517 2.85727 2.58291 6.22302 2.19288 2.50437 2.84152 3.18913 6.15502 6.28075 4.43632 1.5665 6.26395 2.76628 4.90426 1.04057 3.02495 3.26324 6.20977 0.0499093 2.80182 6.26314 3.74756 0.0324414 2.78254 2.76884 2.6391 3.50273 5.94478 3.5068 2.78586 0.0816658 0.00996025 6.28047 2.85818 0.0473668 6.22969 0.0180693 3.6375 6.27896 3.48969 3.22998 0.0117558 3.07294 3.24147 3.42357 2.77994 3.51024 3.10228 4.62241 1.61358 1.98238 3.52657 6.04423 5.64177 2.90528 0.00392733 2.7164 6.21076 3.47578 0.51145 0.586961 2.13041 6.03058 5.15972 5.9222 6.28109 5.32727 3.50695 2.78214 3.55747 0.0344836 6.1951 6.27125 2.86499 2.49897 0.567769 2.82129 3.22001 2.95206 0.00815115 0.0889583 5.92423 2.71527 2.81022 0.0706766 3.50183 2.78712 6.27565 6.22512 4.4309 6.26038 6.27369 2.84678 2.77325 0.274033 2.90325 3.36035 0.00051134 4.10123 5.81596 2.9275 3.50781 2.79225 1.96777 3.9285 2.75123 3.62663 3.50831 0.0132321 2.81436 0.209452 2.78195 6.05986 4.09716 1.5182 3.71848 2.99329 0.01309 4.1081 2.7371 6.27424 2.17899 4.0351 0.737302 6.03293 0.219199 2.85158 3.45454 2.82666 3.50182 2.81075 5.32969 0.00430541 2.7849 3.57037 3.51716 2.78115 3.18917 3.09493 3.49474 6.2115 6.25598 3.68831 3.39362 3.44854 3.69342 5.07225 1.09843 0.0503332 6.28138 1.93283 4.32573 2.85657 3.60084 6.27608 1.20578 0.456551 2.87445 3.99759 0.163116 0.0122947 0.167548 3.50001 2.86095 3.16835 0.00145486 3.50664 2.78359 3.37996 3.53943 2.75422 3.62876 6.23068 1.84457 2.79967 3.49151 0.120351 2.98807 3.07881 0.0566042 3.41658 3.52493 3.41241 4.53974 6.26373 2.97765 3.51263 2.78808 0.170282 6.27575 6.26309 3.41563 3.27464 2.11104 3.48884 3.53722 3.63345 3.81519 3.50171 0.18504 6.24873 3.54337 3.38275 5.88124 3.044 0.107402 4.35145 3.24714 0.00850926 3.52492 2.78644 2.78318 3.50676 3.12057 6.274 2.70049 2.61253 6.22873 3.59634 6.2778 6.2589 0.0220892 1.50541 4.72244 2.81554 2.7963 3.56433 6.25285 3.41391 0.00735698 2.8791 3.28075 6.10237 5.7999 6.09351 3.18752 6.20729 3.75554 2.77159 2.95301 3.34656 2.86958 3.42012 3.14774 2.69546 4.41884 1.74392 2.98169 3.51992 2.78071 0.218722 4.95973 1.10017 2.81793 6.28127 2.64901 6.16864 2.89827 6.13156 6.2552 2.91965 6.18896 2.80484 6.22479 3.86458 4.07169 0.00347975 2.28969 1.0638 6.28196 6.27068 0.00689823 2.98515 3.59921 2.00778 6.27349 3.53077 2.78586 2.75286 3.30409 3.36771 0.0397815 3.58332 2.80517 3.50924 3.50288 2.79595 0.00187801 5.5786 2.74831 6.28135 4.59967 6.17136 3.50726 6.26211 6.26989 2.94359 0.00430589 3.25303 6.21936 3.57675 6.28221 0.00470752 6.26872 1.37013 2.03381 3.51745 6.27832 0.00473042 6.2566 3.52397 3.02798 6.21632 3.03545 3.50858 2.78026 6.16265 2.44203 3.5347 2.69331 6.20934 2.7798 3.51015 3.53357 3.51686 0.00579352 6.27975 2.77931 0.0569352 2.80079 6.27933 3.13364 0.685612 0.0734443 6.27248 3.25027 3.54013 2.25124 0.56278 2.65952 0.224392 3.50226 2.79315 3.5314 0.0455235 4.10705 0.354567 6.22895 6.20538 0.0330026 3.55871 3.14264 0.0463686 2.85168 6.13949 3.76345 2.9278 5.53533 0.241911 0.137412 3.24917 0.00262645 2.75681 6.18388 2.77524 2.7801 3.50883 0.00568871 6.27867 3.3621 2.92436 4.99864 3.50555 2.78249 4.22662 0.345636 3.50468 2.78176 6.28305 0.0107175 3.9134 3.50685 2.78042 3.29981 0.000676236 3.51114 2.78691 0.000599963 3.31062 2.94874 5.89124 3.54867 3.53464 0.0143202 0.0293379 3.59453 0.0261625 2.74905 6.2805 2.76704 3.40465 2.80506 2.84918 3.32684 2.78029 4.84425 2.57452 3.77167 1.99057 2.92206 3.28165 0.0167779 2.78871 4.59625 1.67209 3.42347 2.66117 2.7975 3.56094 3.62968 2.92221 0.090403 1.45605 4.77631 3.0271 0.00770576 3.46235 3.44623 2.79343 3.63823 2.78903 2.80165 3.13007 3.52717 3.24524 2.80148 2.68509 5.18166 3.79307 3.47367 2.8161 2.94684 3.44415 0.00580728 3.02482 0.128388 2.86494 3.46339 0.377821 2.99505 3.51326 2.78593 2.78404 3.51342 2.78081 4.91114 2.83702 2.78372 2.73911 2.62794 2.89079 0.0256357 0.00857961 2.49027 6.03499 3.04428 3.48855 2.75781 3.51201 2.78258 6.15531 6.26295 2.8362 0.453557 3.59066 3.48424 2.77596 5.99056 3.05549 2.47169 5.59288 0.00213593 3.44638 0.0821113 3.8426 3.36413 4.75124 1.4172 3.06525 2.78042 3.50703 0.0739347 3.51357 2.7805 5.30012 6.17177 3.4236 2.87591 1.72481 5.90398 2.797 3.51123 3.52683 3.59796 2.83058 4.28291 2.80464 2.83057 6.28159 2.87467 2.14407 0.0737941 3.95422 0.00236279 6.27292 2.9346 3.40174 0.000540084 4.70794 3.50716 2.10615 6.26566 2.60946 6.27487 0.0295585 0.149497 3.51778 2.72653 6.28136 2.76474 3.09944 3.55793 3.4896 2.79863 3.62485 3.35127 5.92923 0.00646033 0.0270202 3.13486 3.27462 3.36559 3.49093 3.16316 3.0683 3.39938 6.05478 6.18632 2.28483 2.82724 3.19883 0.0754175 3.37619 6.25063 3.5381 2.79046 6.23731 4.63203 0.00366264 2.75154 3.55701 2.85593 3.43102 0.0192599 6.2563 2.73903 5.66108 2.84169 0.0385113 3.5248 3.57684 6.28197 3.84893 3.51292 3.57351 3.59595 2.97138 3.74395 3.50325 4.86155 0.00401019 5.20431 6.25504 3.08021 3.528 3.69903 3.51791 3.25988 2.7922 6.25285 3.1992 0.00151804 0.00104469 2.88999 2.2331 6.22136 3.50815 6.28275 3.50556 2.7817 6.28172 1.13203 6.27489 5.95285 6.26433 2.84765 0.0132075 2.79617 2.8214 3.47637 4.0789 6.12825 6.03033 6.23761 3.50961 2.92936 0.0151658 0.0608434 3.64037 6.27853 2.83468 3.47765 5.80152 6.21655 0.384146 2.79249 6.28314 6.11518 6.27972 6.24025 2.73063 3.33575 6.28006 3.12358 3.15907 5.96834 3.49018 2.83546 0.69551 3.54802 6.12711 2.43778 0.252547 0.000253662 0.0314453 
VECTORS cross_X float